+ 0.1 0 1 tcp 40 ------- 0 0.0 3.0 0 0
- 0.1 0 1 tcp 40 ------- 0 0.0 3.0 0 0
r 0.110032 0 1 tcp 40 ------- 0 0.0 3.0 0 0
+ 0.110032 1 2 tcp 40 ------- 0 0.0 3.0 0 0
- 0.110032 1 2 tcp 40 ------- 0 0.0 3.0 0 0
r 0.120064 1 2 tcp 40 ------- 0 0.0 3.0 0 0
+ 0.120064 2 3 tcp 40 ------- 0 0.0 3.0 0 0
- 0.120064 2 3 tcp 40 ------- 0 0.0 3.0 0 0
r 0.130096 2 3 tcp 40 ------- 0 0.0 3.0 0 0
+ 0.130096 3 2 ack 40 ------- 0 3.0 0.0 0 1
- 0.130096 3 2 ack 40 ------- 0 3.0 0.0 0 1
r 0.140128 3 2 ack 40 ------- 0 3.0 0.0 0 1
+ 0.140128 2 1 ack 40 ------- 0 3.0 0.0 0 1
- 0.140128 2 1 ack 40 ------- 0 3.0 0.0 0 1
r 0.15016 2 1 ack 40 ------- 0 3.0 0.0 0 1
+ 0.15016 1 0 ack 40 ------- 0 3.0 0.0 0 1
- 0.15016 1 0 ack 40 ------- 0 3.0 0.0 0 1
r 0.160192 1 0 ack 40 ------- 0 3.0 0.0 0 1
+ 0.160192 0 1 tcp 1040 ------- 0 0.0 3.0 1 2
- 0.160192 0 1 tcp 1040 ------- 0 0.0 3.0 1 2
+ 0.160192 0 1 tcp 1040 ------- 0 0.0 3.0 2 3
- 0.161024 0 1 tcp 1040 ------- 0 0.0 3.0 2 3
r 0.171024 0 1 tcp 1040 ------- 0 0.0 3.0 1 2
+ 0.171024 1 2 tcp 1040 ------- 0 0.0 3.0 1 2
- 0.171024 1 2 tcp 1040 ------- 0 0.0 3.0 1 2
r 0.171856 0 1 tcp 1040 ------- 0 0.0 3.0 2 3
+ 0.171856 1 2 tcp 1040 ------- 0 0.0 3.0 2 3
- 0.171856 1 2 tcp 1040 ------- 0 0.0 3.0 2 3
r 0.181856 1 2 tcp 1040 ------- 0 0.0 3.0 1 2
+ 0.181856 2 3 tcp 1040 ------- 0 0.0 3.0 1 2
- 0.181856 2 3 tcp 1040 ------- 0 0.0 3.0 1 2
r 0.182688 1 2 tcp 1040 ------- 0 0.0 3.0 2 3
+ 0.182688 2 3 tcp 1040 ------- 0 0.0 3.0 2 3
- 0.182688 2 3 tcp 1040 ------- 0 0.0 3.0 2 3
r 0.192688 2 3 tcp 1040 ------- 0 0.0 3.0 1 2
+ 0.192688 3 2 ack 40 ------- 0 3.0 0.0 1 4
- 0.192688 3 2 ack 40 ------- 0 3.0 0.0 1 4
r 0.19352 2 3 tcp 1040 ------- 0 0.0 3.0 2 3
+ 0.19352 3 2 ack 40 ------- 0 3.0 0.0 2 5
- 0.19352 3 2 ack 40 ------- 0 3.0 0.0 2 5
r 0.20272 3 2 ack 40 ------- 0 3.0 0.0 1 4
+ 0.20272 2 1 ack 40 ------- 0 3.0 0.0 1 4
- 0.20272 2 1 ack 40 ------- 0 3.0 0.0 1 4
r 0.203552 3 2 ack 40 ------- 0 3.0 0.0 2 5
+ 0.203552 2 1 ack 40 ------- 0 3.0 0.0 2 5
- 0.203552 2 1 ack 40 ------- 0 3.0 0.0 2 5
r 0.212752 2 1 ack 40 ------- 0 3.0 0.0 1 4
+ 0.212752 1 0 ack 40 ------- 0 3.0 0.0 1 4
- 0.212752 1 0 ack 40 ------- 0 3.0 0.0 1 4
r 0.213584 2 1 ack 40 ------- 0 3.0 0.0 2 5
+ 0.213584 1 0 ack 40 ------- 0 3.0 0.0 2 5
- 0.213584 1 0 ack 40 ------- 0 3.0 0.0 2 5
r 0.222784 1 0 ack 40 ------- 0 3.0 0.0 1 4
+ 0.222784 0 1 tcp 1040 ------- 0 0.0 3.0 3 6
- 0.222784 0 1 tcp 1040 ------- 0 0.0 3.0 3 6
+ 0.222784 0 1 tcp 1040 ------- 0 0.0 3.0 4 7
r 0.223616 1 0 ack 40 ------- 0 3.0 0.0 2 5
+ 0.223616 0 1 tcp 1040 ------- 0 0.0 3.0 5 8
+ 0.223616 0 1 tcp 1040 ------- 0 0.0 3.0 6 9
- 0.223616 0 1 tcp 1040 ------- 0 0.0 3.0 4 7
- 0.224448 0 1 tcp 1040 ------- 0 0.0 3.0 5 8
- 0.22528 0 1 tcp 1040 ------- 0 0.0 3.0 6 9
r 0.233616 0 1 tcp 1040 ------- 0 0.0 3.0 3 6
+ 0.233616 1 2 tcp 1040 ------- 0 0.0 3.0 3 6
- 0.233616 1 2 tcp 1040 ------- 0 0.0 3.0 3 6
r 0.234448 0 1 tcp 1040 ------- 0 0.0 3.0 4 7
+ 0.234448 1 2 tcp 1040 ------- 0 0.0 3.0 4 7
- 0.234448 1 2 tcp 1040 ------- 0 0.0 3.0 4 7
r 0.23528 0 1 tcp 1040 ------- 0 0.0 3.0 5 8
+ 0.23528 1 2 tcp 1040 ------- 0 0.0 3.0 5 8
- 0.23528 1 2 tcp 1040 ------- 0 0.0 3.0 5 8
r 0.236112 0 1 tcp 1040 ------- 0 0.0 3.0 6 9
+ 0.236112 1 2 tcp 1040 ------- 0 0.0 3.0 6 9
- 0.236112 1 2 tcp 1040 ------- 0 0.0 3.0 6 9
r 0.244448 1 2 tcp 1040 ------- 0 0.0 3.0 3 6
+ 0.244448 2 3 tcp 1040 ------- 0 0.0 3.0 3 6
- 0.244448 2 3 tcp 1040 ------- 0 0.0 3.0 3 6
r 0.24528 1 2 tcp 1040 ------- 0 0.0 3.0 4 7
+ 0.24528 2 3 tcp 1040 ------- 0 0.0 3.0 4 7
- 0.24528 2 3 tcp 1040 ------- 0 0.0 3.0 4 7
r 0.246112 1 2 tcp 1040 ------- 0 0.0 3.0 5 8
+ 0.246112 2 3 tcp 1040 ------- 0 0.0 3.0 5 8
- 0.246112 2 3 tcp 1040 ------- 0 0.0 3.0 5 8
r 0.246944 1 2 tcp 1040 ------- 0 0.0 3.0 6 9
+ 0.246944 2 3 tcp 1040 ------- 0 0.0 3.0 6 9
- 0.246944 2 3 tcp 1040 ------- 0 0.0 3.0 6 9
r 0.25528 2 3 tcp 1040 ------- 0 0.0 3.0 3 6
+ 0.25528 3 2 ack 40 ------- 0 3.0 0.0 3 10
- 0.25528 3 2 ack 40 ------- 0 3.0 0.0 3 10
r 0.256112 2 3 tcp 1040 ------- 0 0.0 3.0 4 7
+ 0.256112 3 2 ack 40 ------- 0 3.0 0.0 4 11
- 0.256112 3 2 ack 40 ------- 0 3.0 0.0 4 11
r 0.256944 2 3 tcp 1040 ------- 0 0.0 3.0 5 8
+ 0.256944 3 2 ack 40 ------- 0 3.0 0.0 5 12
- 0.256944 3 2 ack 40 ------- 0 3.0 0.0 5 12
r 0.257776 2 3 tcp 1040 ------- 0 0.0 3.0 6 9
+ 0.257776 3 2 ack 40 ------- 0 3.0 0.0 6 13
- 0.257776 3 2 ack 40 ------- 0 3.0 0.0 6 13
r 0.265312 3 2 ack 40 ------- 0 3.0 0.0 3 10
+ 0.265312 2 1 ack 40 ------- 0 3.0 0.0 3 10
- 0.265312 2 1 ack 40 ------- 0 3.0 0.0 3 10
r 0.266144 3 2 ack 40 ------- 0 3.0 0.0 4 11
+ 0.266144 2 1 ack 40 ------- 0 3.0 0.0 4 11
- 0.266144 2 1 ack 40 ------- 0 3.0 0.0 4 11
r 0.266976 3 2 ack 40 ------- 0 3.0 0.0 5 12
+ 0.266976 2 1 ack 40 ------- 0 3.0 0.0 5 12
- 0.266976 2 1 ack 40 ------- 0 3.0 0.0 5 12
r 0.267808 3 2 ack 40 ------- 0 3.0 0.0 6 13
+ 0.267808 2 1 ack 40 ------- 0 3.0 0.0 6 13
- 0.267808 2 1 ack 40 ------- 0 3.0 0.0 6 13
r 0.275344 2 1 ack 40 ------- 0 3.0 0.0 3 10
+ 0.275344 1 0 ack 40 ------- 0 3.0 0.0 3 10
- 0.275344 1 0 ack 40 ------- 0 3.0 0.0 3 10
r 0.276176 2 1 ack 40 ------- 0 3.0 0.0 4 11
+ 0.276176 1 0 ack 40 ------- 0 3.0 0.0 4 11
- 0.276176 1 0 ack 40 ------- 0 3.0 0.0 4 11
r 0.277008 2 1 ack 40 ------- 0 3.0 0.0 5 12
+ 0.277008 1 0 ack 40 ------- 0 3.0 0.0 5 12
- 0.277008 1 0 ack 40 ------- 0 3.0 0.0 5 12
r 0.27784 2 1 ack 40 ------- 0 3.0 0.0 6 13
+ 0.27784 1 0 ack 40 ------- 0 3.0 0.0 6 13
- 0.27784 1 0 ack 40 ------- 0 3.0 0.0 6 13
r 0.285376 1 0 ack 40 ------- 0 3.0 0.0 3 10
+ 0.285376 0 1 tcp 1040 ------- 0 0.0 3.0 7 14
- 0.285376 0 1 tcp 1040 ------- 0 0.0 3.0 7 14
+ 0.285376 0 1 tcp 1040 ------- 0 0.0 3.0 8 15
r 0.286208 1 0 ack 40 ------- 0 3.0 0.0 4 11
+ 0.286208 0 1 tcp 1040 ------- 0 0.0 3.0 9 16
+ 0.286208 0 1 tcp 1040 ------- 0 0.0 3.0 10 17
- 0.286208 0 1 tcp 1040 ------- 0 0.0 3.0 8 15
r 0.28704 1 0 ack 40 ------- 0 3.0 0.0 5 12
+ 0.28704 0 1 tcp 1040 ------- 0 0.0 3.0 11 18
+ 0.28704 0 1 tcp 1040 ------- 0 0.0 3.0 12 19
- 0.28704 0 1 tcp 1040 ------- 0 0.0 3.0 9 16
r 0.287872 1 0 ack 40 ------- 0 3.0 0.0 6 13
+ 0.287872 0 1 tcp 1040 ------- 0 0.0 3.0 13 20
+ 0.287872 0 1 tcp 1040 ------- 0 0.0 3.0 14 21
- 0.287872 0 1 tcp 1040 ------- 0 0.0 3.0 10 17
- 0.288704 0 1 tcp 1040 ------- 0 0.0 3.0 11 18
- 0.289536 0 1 tcp 1040 ------- 0 0.0 3.0 12 19
- 0.290368 0 1 tcp 1040 ------- 0 0.0 3.0 13 20
- 0.2912 0 1 tcp 1040 ------- 0 0.0 3.0 14 21
r 0.296208 0 1 tcp 1040 ------- 0 0.0 3.0 7 14
+ 0.296208 1 2 tcp 1040 ------- 0 0.0 3.0 7 14
- 0.296208 1 2 tcp 1040 ------- 0 0.0 3.0 7 14
r 0.29704 0 1 tcp 1040 ------- 0 0.0 3.0 8 15
+ 0.29704 1 2 tcp 1040 ------- 0 0.0 3.0 8 15
- 0.29704 1 2 tcp 1040 ------- 0 0.0 3.0 8 15
r 0.297872 0 1 tcp 1040 ------- 0 0.0 3.0 9 16
+ 0.297872 1 2 tcp 1040 ------- 0 0.0 3.0 9 16
- 0.297872 1 2 tcp 1040 ------- 0 0.0 3.0 9 16
r 0.298704 0 1 tcp 1040 ------- 0 0.0 3.0 10 17
+ 0.298704 1 2 tcp 1040 ------- 0 0.0 3.0 10 17
- 0.298704 1 2 tcp 1040 ------- 0 0.0 3.0 10 17
r 0.299536 0 1 tcp 1040 ------- 0 0.0 3.0 11 18
+ 0.299536 1 2 tcp 1040 ------- 0 0.0 3.0 11 18
- 0.299536 1 2 tcp 1040 ------- 0 0.0 3.0 11 18
r 0.300368 0 1 tcp 1040 ------- 0 0.0 3.0 12 19
+ 0.300368 1 2 tcp 1040 ------- 0 0.0 3.0 12 19
- 0.300368 1 2 tcp 1040 ------- 0 0.0 3.0 12 19
r 0.3012 0 1 tcp 1040 ------- 0 0.0 3.0 13 20
+ 0.3012 1 2 tcp 1040 ------- 0 0.0 3.0 13 20
- 0.3012 1 2 tcp 1040 ------- 0 0.0 3.0 13 20
r 0.302032 0 1 tcp 1040 ------- 0 0.0 3.0 14 21
+ 0.302032 1 2 tcp 1040 ------- 0 0.0 3.0 14 21
- 0.302032 1 2 tcp 1040 ------- 0 0.0 3.0 14 21
r 0.30704 1 2 tcp 1040 ------- 0 0.0 3.0 7 14
+ 0.30704 2 3 tcp 1040 ------- 0 0.0 3.0 7 14
- 0.30704 2 3 tcp 1040 ------- 0 0.0 3.0 7 14
r 0.307872 1 2 tcp 1040 ------- 0 0.0 3.0 8 15
+ 0.307872 2 3 tcp 1040 ------- 0 0.0 3.0 8 15
- 0.307872 2 3 tcp 1040 ------- 0 0.0 3.0 8 15
r 0.308704 1 2 tcp 1040 ------- 0 0.0 3.0 9 16
+ 0.308704 2 3 tcp 1040 ------- 0 0.0 3.0 9 16
- 0.308704 2 3 tcp 1040 ------- 0 0.0 3.0 9 16
r 0.309536 1 2 tcp 1040 ------- 0 0.0 3.0 10 17
+ 0.309536 2 3 tcp 1040 ------- 0 0.0 3.0 10 17
- 0.309536 2 3 tcp 1040 ------- 0 0.0 3.0 10 17
r 0.310368 1 2 tcp 1040 ------- 0 0.0 3.0 11 18
+ 0.310368 2 3 tcp 1040 ------- 0 0.0 3.0 11 18
- 0.310368 2 3 tcp 1040 ------- 0 0.0 3.0 11 18
r 0.3112 1 2 tcp 1040 ------- 0 0.0 3.0 12 19
+ 0.3112 2 3 tcp 1040 ------- 0 0.0 3.0 12 19
- 0.3112 2 3 tcp 1040 ------- 0 0.0 3.0 12 19
r 0.312032 1 2 tcp 1040 ------- 0 0.0 3.0 13 20
+ 0.312032 2 3 tcp 1040 ------- 0 0.0 3.0 13 20
- 0.312032 2 3 tcp 1040 ------- 0 0.0 3.0 13 20
r 0.312864 1 2 tcp 1040 ------- 0 0.0 3.0 14 21
+ 0.312864 2 3 tcp 1040 ------- 0 0.0 3.0 14 21
- 0.312864 2 3 tcp 1040 ------- 0 0.0 3.0 14 21
r 0.317872 2 3 tcp 1040 ------- 0 0.0 3.0 7 14
+ 0.317872 3 2 ack 40 ------- 0 3.0 0.0 7 22
- 0.317872 3 2 ack 40 ------- 0 3.0 0.0 7 22
r 0.318704 2 3 tcp 1040 ------- 0 0.0 3.0 8 15
+ 0.318704 3 2 ack 40 ------- 0 3.0 0.0 8 23
- 0.318704 3 2 ack 40 ------- 0 3.0 0.0 8 23
r 0.319536 2 3 tcp 1040 ------- 0 0.0 3.0 9 16
+ 0.319536 3 2 ack 40 ------- 0 3.0 0.0 9 24
- 0.319536 3 2 ack 40 ------- 0 3.0 0.0 9 24
r 0.320368 2 3 tcp 1040 ------- 0 0.0 3.0 10 17
+ 0.320368 3 2 ack 40 ------- 0 3.0 0.0 10 25
- 0.320368 3 2 ack 40 ------- 0 3.0 0.0 10 25
r 0.3212 2 3 tcp 1040 ------- 0 0.0 3.0 11 18
+ 0.3212 3 2 ack 40 ------- 0 3.0 0.0 11 26
- 0.3212 3 2 ack 40 ------- 0 3.0 0.0 11 26
r 0.322032 2 3 tcp 1040 ------- 0 0.0 3.0 12 19
+ 0.322032 3 2 ack 40 ------- 0 3.0 0.0 12 27
- 0.322032 3 2 ack 40 ------- 0 3.0 0.0 12 27
r 0.322864 2 3 tcp 1040 ------- 0 0.0 3.0 13 20
+ 0.322864 3 2 ack 40 ------- 0 3.0 0.0 13 28
- 0.322864 3 2 ack 40 ------- 0 3.0 0.0 13 28
r 0.323696 2 3 tcp 1040 ------- 0 0.0 3.0 14 21
+ 0.323696 3 2 ack 40 ------- 0 3.0 0.0 14 29
- 0.323696 3 2 ack 40 ------- 0 3.0 0.0 14 29
r 0.327904 3 2 ack 40 ------- 0 3.0 0.0 7 22
+ 0.327904 2 1 ack 40 ------- 0 3.0 0.0 7 22
- 0.327904 2 1 ack 40 ------- 0 3.0 0.0 7 22
r 0.328736 3 2 ack 40 ------- 0 3.0 0.0 8 23
+ 0.328736 2 1 ack 40 ------- 0 3.0 0.0 8 23
- 0.328736 2 1 ack 40 ------- 0 3.0 0.0 8 23
r 0.329568 3 2 ack 40 ------- 0 3.0 0.0 9 24
+ 0.329568 2 1 ack 40 ------- 0 3.0 0.0 9 24
- 0.329568 2 1 ack 40 ------- 0 3.0 0.0 9 24
r 0.3304 3 2 ack 40 ------- 0 3.0 0.0 10 25
+ 0.3304 2 1 ack 40 ------- 0 3.0 0.0 10 25
- 0.3304 2 1 ack 40 ------- 0 3.0 0.0 10 25
r 0.331232 3 2 ack 40 ------- 0 3.0 0.0 11 26
+ 0.331232 2 1 ack 40 ------- 0 3.0 0.0 11 26
- 0.331232 2 1 ack 40 ------- 0 3.0 0.0 11 26
r 0.332064 3 2 ack 40 ------- 0 3.0 0.0 12 27
+ 0.332064 2 1 ack 40 ------- 0 3.0 0.0 12 27
- 0.332064 2 1 ack 40 ------- 0 3.0 0.0 12 27
r 0.332896 3 2 ack 40 ------- 0 3.0 0.0 13 28
+ 0.332896 2 1 ack 40 ------- 0 3.0 0.0 13 28
- 0.332896 2 1 ack 40 ------- 0 3.0 0.0 13 28
r 0.333728 3 2 ack 40 ------- 0 3.0 0.0 14 29
+ 0.333728 2 1 ack 40 ------- 0 3.0 0.0 14 29
- 0.333728 2 1 ack 40 ------- 0 3.0 0.0 14 29
r 0.337936 2 1 ack 40 ------- 0 3.0 0.0 7 22
+ 0.337936 1 0 ack 40 ------- 0 3.0 0.0 7 22
- 0.337936 1 0 ack 40 ------- 0 3.0 0.0 7 22
r 0.338768 2 1 ack 40 ------- 0 3.0 0.0 8 23
+ 0.338768 1 0 ack 40 ------- 0 3.0 0.0 8 23
- 0.338768 1 0 ack 40 ------- 0 3.0 0.0 8 23
r 0.3396 2 1 ack 40 ------- 0 3.0 0.0 9 24
+ 0.3396 1 0 ack 40 ------- 0 3.0 0.0 9 24
- 0.3396 1 0 ack 40 ------- 0 3.0 0.0 9 24
r 0.340432 2 1 ack 40 ------- 0 3.0 0.0 10 25
+ 0.340432 1 0 ack 40 ------- 0 3.0 0.0 10 25
- 0.340432 1 0 ack 40 ------- 0 3.0 0.0 10 25
r 0.341264 2 1 ack 40 ------- 0 3.0 0.0 11 26
+ 0.341264 1 0 ack 40 ------- 0 3.0 0.0 11 26
- 0.341264 1 0 ack 40 ------- 0 3.0 0.0 11 26
r 0.342096 2 1 ack 40 ------- 0 3.0 0.0 12 27
+ 0.342096 1 0 ack 40 ------- 0 3.0 0.0 12 27
- 0.342096 1 0 ack 40 ------- 0 3.0 0.0 12 27
r 0.342928 2 1 ack 40 ------- 0 3.0 0.0 13 28
+ 0.342928 1 0 ack 40 ------- 0 3.0 0.0 13 28
- 0.342928 1 0 ack 40 ------- 0 3.0 0.0 13 28
r 0.34376 2 1 ack 40 ------- 0 3.0 0.0 14 29
+ 0.34376 1 0 ack 40 ------- 0 3.0 0.0 14 29
- 0.34376 1 0 ack 40 ------- 0 3.0 0.0 14 29
r 0.347968 1 0 ack 40 ------- 0 3.0 0.0 7 22
+ 0.347968 0 1 tcp 1040 ------- 0 0.0 3.0 15 30
- 0.347968 0 1 tcp 1040 ------- 0 0.0 3.0 15 30
+ 0.347968 0 1 tcp 1040 ------- 0 0.0 3.0 16 31
r 0.3488 1 0 ack 40 ------- 0 3.0 0.0 8 23
+ 0.3488 0 1 tcp 1040 ------- 0 0.0 3.0 17 32
+ 0.3488 0 1 tcp 1040 ------- 0 0.0 3.0 18 33
- 0.3488 0 1 tcp 1040 ------- 0 0.0 3.0 16 31
r 0.349632 1 0 ack 40 ------- 0 3.0 0.0 9 24
+ 0.349632 0 1 tcp 1040 ------- 0 0.0 3.0 19 34
+ 0.349632 0 1 tcp 1040 ------- 0 0.0 3.0 20 35
- 0.349632 0 1 tcp 1040 ------- 0 0.0 3.0 17 32
r 0.350464 1 0 ack 40 ------- 0 3.0 0.0 10 25
+ 0.350464 0 1 tcp 1040 ------- 0 0.0 3.0 21 36
+ 0.350464 0 1 tcp 1040 ------- 0 0.0 3.0 22 37
- 0.350464 0 1 tcp 1040 ------- 0 0.0 3.0 18 33
r 0.351296 1 0 ack 40 ------- 0 3.0 0.0 11 26
+ 0.351296 0 1 tcp 1040 ------- 0 0.0 3.0 23 38
+ 0.351296 0 1 tcp 1040 ------- 0 0.0 3.0 24 39
- 0.351296 0 1 tcp 1040 ------- 0 0.0 3.0 19 34
r 0.352128 1 0 ack 40 ------- 0 3.0 0.0 12 27
+ 0.352128 0 1 tcp 1040 ------- 0 0.0 3.0 25 40
+ 0.352128 0 1 tcp 1040 ------- 0 0.0 3.0 26 41
- 0.352128 0 1 tcp 1040 ------- 0 0.0 3.0 20 35
r 0.35296 1 0 ack 40 ------- 0 3.0 0.0 13 28
+ 0.35296 0 1 tcp 1040 ------- 0 0.0 3.0 27 42
+ 0.35296 0 1 tcp 1040 ------- 0 0.0 3.0 28 43
- 0.35296 0 1 tcp 1040 ------- 0 0.0 3.0 21 36
r 0.353792 1 0 ack 40 ------- 0 3.0 0.0 14 29
+ 0.353792 0 1 tcp 1040 ------- 0 0.0 3.0 29 44
+ 0.353792 0 1 tcp 1040 ------- 0 0.0 3.0 30 45
- 0.353792 0 1 tcp 1040 ------- 0 0.0 3.0 22 37
- 0.354624 0 1 tcp 1040 ------- 0 0.0 3.0 23 38
- 0.355456 0 1 tcp 1040 ------- 0 0.0 3.0 24 39
- 0.356288 0 1 tcp 1040 ------- 0 0.0 3.0 25 40
- 0.35712 0 1 tcp 1040 ------- 0 0.0 3.0 26 41
- 0.357952 0 1 tcp 1040 ------- 0 0.0 3.0 27 42
- 0.358784 0 1 tcp 1040 ------- 0 0.0 3.0 28 43
r 0.3588 0 1 tcp 1040 ------- 0 0.0 3.0 15 30
+ 0.3588 1 2 tcp 1040 ------- 0 0.0 3.0 15 30
- 0.3588 1 2 tcp 1040 ------- 0 0.0 3.0 15 30
- 0.359616 0 1 tcp 1040 ------- 0 0.0 3.0 29 44
r 0.359632 0 1 tcp 1040 ------- 0 0.0 3.0 16 31
+ 0.359632 1 2 tcp 1040 ------- 0 0.0 3.0 16 31
- 0.359632 1 2 tcp 1040 ------- 0 0.0 3.0 16 31
- 0.360448 0 1 tcp 1040 ------- 0 0.0 3.0 30 45
r 0.360464 0 1 tcp 1040 ------- 0 0.0 3.0 17 32
+ 0.360464 1 2 tcp 1040 ------- 0 0.0 3.0 17 32
- 0.360464 1 2 tcp 1040 ------- 0 0.0 3.0 17 32
r 0.361296 0 1 tcp 1040 ------- 0 0.0 3.0 18 33
+ 0.361296 1 2 tcp 1040 ------- 0 0.0 3.0 18 33
- 0.361296 1 2 tcp 1040 ------- 0 0.0 3.0 18 33
r 0.362128 0 1 tcp 1040 ------- 0 0.0 3.0 19 34
+ 0.362128 1 2 tcp 1040 ------- 0 0.0 3.0 19 34
- 0.362128 1 2 tcp 1040 ------- 0 0.0 3.0 19 34
r 0.36296 0 1 tcp 1040 ------- 0 0.0 3.0 20 35
+ 0.36296 1 2 tcp 1040 ------- 0 0.0 3.0 20 35
- 0.36296 1 2 tcp 1040 ------- 0 0.0 3.0 20 35
r 0.363792 0 1 tcp 1040 ------- 0 0.0 3.0 21 36
+ 0.363792 1 2 tcp 1040 ------- 0 0.0 3.0 21 36
- 0.363792 1 2 tcp 1040 ------- 0 0.0 3.0 21 36
r 0.364624 0 1 tcp 1040 ------- 0 0.0 3.0 22 37
+ 0.364624 1 2 tcp 1040 ------- 0 0.0 3.0 22 37
- 0.364624 1 2 tcp 1040 ------- 0 0.0 3.0 22 37
r 0.365456 0 1 tcp 1040 ------- 0 0.0 3.0 23 38
+ 0.365456 1 2 tcp 1040 ------- 0 0.0 3.0 23 38
- 0.365456 1 2 tcp 1040 ------- 0 0.0 3.0 23 38
r 0.366288 0 1 tcp 1040 ------- 0 0.0 3.0 24 39
+ 0.366288 1 2 tcp 1040 ------- 0 0.0 3.0 24 39
- 0.366288 1 2 tcp 1040 ------- 0 0.0 3.0 24 39
r 0.36712 0 1 tcp 1040 ------- 0 0.0 3.0 25 40
+ 0.36712 1 2 tcp 1040 ------- 0 0.0 3.0 25 40
- 0.36712 1 2 tcp 1040 ------- 0 0.0 3.0 25 40
r 0.367952 0 1 tcp 1040 ------- 0 0.0 3.0 26 41
+ 0.367952 1 2 tcp 1040 ------- 0 0.0 3.0 26 41
- 0.367952 1 2 tcp 1040 ------- 0 0.0 3.0 26 41
r 0.368784 0 1 tcp 1040 ------- 0 0.0 3.0 27 42
+ 0.368784 1 2 tcp 1040 ------- 0 0.0 3.0 27 42
- 0.368784 1 2 tcp 1040 ------- 0 0.0 3.0 27 42
r 0.369616 0 1 tcp 1040 ------- 0 0.0 3.0 28 43
+ 0.369616 1 2 tcp 1040 ------- 0 0.0 3.0 28 43
- 0.369616 1 2 tcp 1040 ------- 0 0.0 3.0 28 43
r 0.369632 1 2 tcp 1040 ------- 0 0.0 3.0 15 30
+ 0.369632 2 3 tcp 1040 ------- 0 0.0 3.0 15 30
- 0.369632 2 3 tcp 1040 ------- 0 0.0 3.0 15 30
r 0.370448 0 1 tcp 1040 ------- 0 0.0 3.0 29 44
+ 0.370448 1 2 tcp 1040 ------- 0 0.0 3.0 29 44
- 0.370448 1 2 tcp 1040 ------- 0 0.0 3.0 29 44
r 0.370464 1 2 tcp 1040 ------- 0 0.0 3.0 16 31
+ 0.370464 2 3 tcp 1040 ------- 0 0.0 3.0 16 31
- 0.370464 2 3 tcp 1040 ------- 0 0.0 3.0 16 31
r 0.37128 0 1 tcp 1040 ------- 0 0.0 3.0 30 45
+ 0.37128 1 2 tcp 1040 ------- 0 0.0 3.0 30 45
- 0.37128 1 2 tcp 1040 ------- 0 0.0 3.0 30 45
r 0.371296 1 2 tcp 1040 ------- 0 0.0 3.0 17 32
+ 0.371296 2 3 tcp 1040 ------- 0 0.0 3.0 17 32
- 0.371296 2 3 tcp 1040 ------- 0 0.0 3.0 17 32
r 0.372128 1 2 tcp 1040 ------- 0 0.0 3.0 18 33
+ 0.372128 2 3 tcp 1040 ------- 0 0.0 3.0 18 33
- 0.372128 2 3 tcp 1040 ------- 0 0.0 3.0 18 33
r 0.37296 1 2 tcp 1040 ------- 0 0.0 3.0 19 34
+ 0.37296 2 3 tcp 1040 ------- 0 0.0 3.0 19 34
- 0.37296 2 3 tcp 1040 ------- 0 0.0 3.0 19 34
r 0.373792 1 2 tcp 1040 ------- 0 0.0 3.0 20 35
+ 0.373792 2 3 tcp 1040 ------- 0 0.0 3.0 20 35
- 0.373792 2 3 tcp 1040 ------- 0 0.0 3.0 20 35
r 0.374624 1 2 tcp 1040 ------- 0 0.0 3.0 21 36
+ 0.374624 2 3 tcp 1040 ------- 0 0.0 3.0 21 36
- 0.374624 2 3 tcp 1040 ------- 0 0.0 3.0 21 36
r 0.375456 1 2 tcp 1040 ------- 0 0.0 3.0 22 37
+ 0.375456 2 3 tcp 1040 ------- 0 0.0 3.0 22 37
- 0.375456 2 3 tcp 1040 ------- 0 0.0 3.0 22 37
r 0.376288 1 2 tcp 1040 ------- 0 0.0 3.0 23 38
+ 0.376288 2 3 tcp 1040 ------- 0 0.0 3.0 23 38
- 0.376288 2 3 tcp 1040 ------- 0 0.0 3.0 23 38
r 0.37712 1 2 tcp 1040 ------- 0 0.0 3.0 24 39
+ 0.37712 2 3 tcp 1040 ------- 0 0.0 3.0 24 39
- 0.37712 2 3 tcp 1040 ------- 0 0.0 3.0 24 39
r 0.377952 1 2 tcp 1040 ------- 0 0.0 3.0 25 40
+ 0.377952 2 3 tcp 1040 ------- 0 0.0 3.0 25 40
- 0.377952 2 3 tcp 1040 ------- 0 0.0 3.0 25 40
r 0.378784 1 2 tcp 1040 ------- 0 0.0 3.0 26 41
+ 0.378784 2 3 tcp 1040 ------- 0 0.0 3.0 26 41
- 0.378784 2 3 tcp 1040 ------- 0 0.0 3.0 26 41
r 0.379616 1 2 tcp 1040 ------- 0 0.0 3.0 27 42
+ 0.379616 2 3 tcp 1040 ------- 0 0.0 3.0 27 42
- 0.379616 2 3 tcp 1040 ------- 0 0.0 3.0 27 42
r 0.380448 1 2 tcp 1040 ------- 0 0.0 3.0 28 43
+ 0.380448 2 3 tcp 1040 ------- 0 0.0 3.0 28 43
- 0.380448 2 3 tcp 1040 ------- 0 0.0 3.0 28 43
r 0.380464 2 3 tcp 1040 ------- 0 0.0 3.0 15 30
+ 0.380464 3 2 ack 40 ------- 0 3.0 0.0 15 46
- 0.380464 3 2 ack 40 ------- 0 3.0 0.0 15 46
r 0.38128 1 2 tcp 1040 ------- 0 0.0 3.0 29 44
+ 0.38128 2 3 tcp 1040 ------- 0 0.0 3.0 29 44
- 0.38128 2 3 tcp 1040 ------- 0 0.0 3.0 29 44
r 0.381296 2 3 tcp 1040 ------- 0 0.0 3.0 16 31
+ 0.381296 3 2 ack 40 ------- 0 3.0 0.0 16 47
- 0.381296 3 2 ack 40 ------- 0 3.0 0.0 16 47
r 0.382112 1 2 tcp 1040 ------- 0 0.0 3.0 30 45
+ 0.382112 2 3 tcp 1040 ------- 0 0.0 3.0 30 45
- 0.382112 2 3 tcp 1040 ------- 0 0.0 3.0 30 45
r 0.382128 2 3 tcp 1040 ------- 0 0.0 3.0 17 32
+ 0.382128 3 2 ack 40 ------- 0 3.0 0.0 17 48
- 0.382128 3 2 ack 40 ------- 0 3.0 0.0 17 48
r 0.38296 2 3 tcp 1040 ------- 0 0.0 3.0 18 33
+ 0.38296 3 2 ack 40 ------- 0 3.0 0.0 18 49
- 0.38296 3 2 ack 40 ------- 0 3.0 0.0 18 49
r 0.383792 2 3 tcp 1040 ------- 0 0.0 3.0 19 34
+ 0.383792 3 2 ack 40 ------- 0 3.0 0.0 19 50
- 0.383792 3 2 ack 40 ------- 0 3.0 0.0 19 50
r 0.384624 2 3 tcp 1040 ------- 0 0.0 3.0 20 35
+ 0.384624 3 2 ack 40 ------- 0 3.0 0.0 20 51
- 0.384624 3 2 ack 40 ------- 0 3.0 0.0 20 51
r 0.385456 2 3 tcp 1040 ------- 0 0.0 3.0 21 36
+ 0.385456 3 2 ack 40 ------- 0 3.0 0.0 21 52
- 0.385456 3 2 ack 40 ------- 0 3.0 0.0 21 52
r 0.386288 2 3 tcp 1040 ------- 0 0.0 3.0 22 37
+ 0.386288 3 2 ack 40 ------- 0 3.0 0.0 22 53
- 0.386288 3 2 ack 40 ------- 0 3.0 0.0 22 53
r 0.38712 2 3 tcp 1040 ------- 0 0.0 3.0 23 38
+ 0.38712 3 2 ack 40 ------- 0 3.0 0.0 23 54
- 0.38712 3 2 ack 40 ------- 0 3.0 0.0 23 54
r 0.387952 2 3 tcp 1040 ------- 0 0.0 3.0 24 39
+ 0.387952 3 2 ack 40 ------- 0 3.0 0.0 24 55
- 0.387952 3 2 ack 40 ------- 0 3.0 0.0 24 55
r 0.388784 2 3 tcp 1040 ------- 0 0.0 3.0 25 40
+ 0.388784 3 2 ack 40 ------- 0 3.0 0.0 25 56
- 0.388784 3 2 ack 40 ------- 0 3.0 0.0 25 56
r 0.389616 2 3 tcp 1040 ------- 0 0.0 3.0 26 41
+ 0.389616 3 2 ack 40 ------- 0 3.0 0.0 26 57
- 0.389616 3 2 ack 40 ------- 0 3.0 0.0 26 57
r 0.390448 2 3 tcp 1040 ------- 0 0.0 3.0 27 42
+ 0.390448 3 2 ack 40 ------- 0 3.0 0.0 27 58
- 0.390448 3 2 ack 40 ------- 0 3.0 0.0 27 58
r 0.390496 3 2 ack 40 ------- 0 3.0 0.0 15 46
+ 0.390496 2 1 ack 40 ------- 0 3.0 0.0 15 46
- 0.390496 2 1 ack 40 ------- 0 3.0 0.0 15 46
r 0.39128 2 3 tcp 1040 ------- 0 0.0 3.0 28 43
+ 0.39128 3 2 ack 40 ------- 0 3.0 0.0 28 59
- 0.39128 3 2 ack 40 ------- 0 3.0 0.0 28 59
r 0.391328 3 2 ack 40 ------- 0 3.0 0.0 16 47
+ 0.391328 2 1 ack 40 ------- 0 3.0 0.0 16 47
- 0.391328 2 1 ack 40 ------- 0 3.0 0.0 16 47
r 0.392112 2 3 tcp 1040 ------- 0 0.0 3.0 29 44
+ 0.392112 3 2 ack 40 ------- 0 3.0 0.0 29 60
- 0.392112 3 2 ack 40 ------- 0 3.0 0.0 29 60
r 0.39216 3 2 ack 40 ------- 0 3.0 0.0 17 48
+ 0.39216 2 1 ack 40 ------- 0 3.0 0.0 17 48
- 0.39216 2 1 ack 40 ------- 0 3.0 0.0 17 48
r 0.392944 2 3 tcp 1040 ------- 0 0.0 3.0 30 45
+ 0.392944 3 2 ack 40 ------- 0 3.0 0.0 30 61
- 0.392944 3 2 ack 40 ------- 0 3.0 0.0 30 61
r 0.392992 3 2 ack 40 ------- 0 3.0 0.0 18 49
+ 0.392992 2 1 ack 40 ------- 0 3.0 0.0 18 49
- 0.392992 2 1 ack 40 ------- 0 3.0 0.0 18 49
r 0.393824 3 2 ack 40 ------- 0 3.0 0.0 19 50
+ 0.393824 2 1 ack 40 ------- 0 3.0 0.0 19 50
- 0.393824 2 1 ack 40 ------- 0 3.0 0.0 19 50
r 0.394656 3 2 ack 40 ------- 0 3.0 0.0 20 51
+ 0.394656 2 1 ack 40 ------- 0 3.0 0.0 20 51
- 0.394656 2 1 ack 40 ------- 0 3.0 0.0 20 51
r 0.395488 3 2 ack 40 ------- 0 3.0 0.0 21 52
+ 0.395488 2 1 ack 40 ------- 0 3.0 0.0 21 52
- 0.395488 2 1 ack 40 ------- 0 3.0 0.0 21 52
r 0.39632 3 2 ack 40 ------- 0 3.0 0.0 22 53
+ 0.39632 2 1 ack 40 ------- 0 3.0 0.0 22 53
- 0.39632 2 1 ack 40 ------- 0 3.0 0.0 22 53
r 0.397152 3 2 ack 40 ------- 0 3.0 0.0 23 54
+ 0.397152 2 1 ack 40 ------- 0 3.0 0.0 23 54
- 0.397152 2 1 ack 40 ------- 0 3.0 0.0 23 54
r 0.397984 3 2 ack 40 ------- 0 3.0 0.0 24 55
+ 0.397984 2 1 ack 40 ------- 0 3.0 0.0 24 55
- 0.397984 2 1 ack 40 ------- 0 3.0 0.0 24 55
r 0.398816 3 2 ack 40 ------- 0 3.0 0.0 25 56
+ 0.398816 2 1 ack 40 ------- 0 3.0 0.0 25 56
- 0.398816 2 1 ack 40 ------- 0 3.0 0.0 25 56
r 0.399648 3 2 ack 40 ------- 0 3.0 0.0 26 57
+ 0.399648 2 1 ack 40 ------- 0 3.0 0.0 26 57
- 0.399648 2 1 ack 40 ------- 0 3.0 0.0 26 57
r 0.40048 3 2 ack 40 ------- 0 3.0 0.0 27 58
+ 0.40048 2 1 ack 40 ------- 0 3.0 0.0 27 58
- 0.40048 2 1 ack 40 ------- 0 3.0 0.0 27 58
r 0.400528 2 1 ack 40 ------- 0 3.0 0.0 15 46
+ 0.400528 1 0 ack 40 ------- 0 3.0 0.0 15 46
- 0.400528 1 0 ack 40 ------- 0 3.0 0.0 15 46
r 0.401312 3 2 ack 40 ------- 0 3.0 0.0 28 59
+ 0.401312 2 1 ack 40 ------- 0 3.0 0.0 28 59
- 0.401312 2 1 ack 40 ------- 0 3.0 0.0 28 59
r 0.40136 2 1 ack 40 ------- 0 3.0 0.0 16 47
+ 0.40136 1 0 ack 40 ------- 0 3.0 0.0 16 47
- 0.40136 1 0 ack 40 ------- 0 3.0 0.0 16 47
r 0.402144 3 2 ack 40 ------- 0 3.0 0.0 29 60
+ 0.402144 2 1 ack 40 ------- 0 3.0 0.0 29 60
- 0.402144 2 1 ack 40 ------- 0 3.0 0.0 29 60
r 0.402192 2 1 ack 40 ------- 0 3.0 0.0 17 48
+ 0.402192 1 0 ack 40 ------- 0 3.0 0.0 17 48
- 0.402192 1 0 ack 40 ------- 0 3.0 0.0 17 48
r 0.402976 3 2 ack 40 ------- 0 3.0 0.0 30 61
+ 0.402976 2 1 ack 40 ------- 0 3.0 0.0 30 61
- 0.402976 2 1 ack 40 ------- 0 3.0 0.0 30 61
r 0.403024 2 1 ack 40 ------- 0 3.0 0.0 18 49
+ 0.403024 1 0 ack 40 ------- 0 3.0 0.0 18 49
- 0.403024 1 0 ack 40 ------- 0 3.0 0.0 18 49
r 0.403856 2 1 ack 40 ------- 0 3.0 0.0 19 50
+ 0.403856 1 0 ack 40 ------- 0 3.0 0.0 19 50
- 0.403856 1 0 ack 40 ------- 0 3.0 0.0 19 50
r 0.404688 2 1 ack 40 ------- 0 3.0 0.0 20 51
+ 0.404688 1 0 ack 40 ------- 0 3.0 0.0 20 51
- 0.404688 1 0 ack 40 ------- 0 3.0 0.0 20 51
r 0.40552 2 1 ack 40 ------- 0 3.0 0.0 21 52
+ 0.40552 1 0 ack 40 ------- 0 3.0 0.0 21 52
- 0.40552 1 0 ack 40 ------- 0 3.0 0.0 21 52
r 0.406352 2 1 ack 40 ------- 0 3.0 0.0 22 53
+ 0.406352 1 0 ack 40 ------- 0 3.0 0.0 22 53
- 0.406352 1 0 ack 40 ------- 0 3.0 0.0 22 53
r 0.407184 2 1 ack 40 ------- 0 3.0 0.0 23 54
+ 0.407184 1 0 ack 40 ------- 0 3.0 0.0 23 54
- 0.407184 1 0 ack 40 ------- 0 3.0 0.0 23 54
r 0.408016 2 1 ack 40 ------- 0 3.0 0.0 24 55
+ 0.408016 1 0 ack 40 ------- 0 3.0 0.0 24 55
- 0.408016 1 0 ack 40 ------- 0 3.0 0.0 24 55
r 0.408848 2 1 ack 40 ------- 0 3.0 0.0 25 56
+ 0.408848 1 0 ack 40 ------- 0 3.0 0.0 25 56
- 0.408848 1 0 ack 40 ------- 0 3.0 0.0 25 56
r 0.40968 2 1 ack 40 ------- 0 3.0 0.0 26 57
+ 0.40968 1 0 ack 40 ------- 0 3.0 0.0 26 57
- 0.40968 1 0 ack 40 ------- 0 3.0 0.0 26 57
r 0.410512 2 1 ack 40 ------- 0 3.0 0.0 27 58
+ 0.410512 1 0 ack 40 ------- 0 3.0 0.0 27 58
- 0.410512 1 0 ack 40 ------- 0 3.0 0.0 27 58
r 0.41056 1 0 ack 40 ------- 0 3.0 0.0 15 46
+ 0.41056 0 1 tcp 1040 ------- 0 0.0 3.0 31 62
- 0.41056 0 1 tcp 1040 ------- 0 0.0 3.0 31 62
+ 0.41056 0 1 tcp 1040 ------- 0 0.0 3.0 32 63
r 0.411344 2 1 ack 40 ------- 0 3.0 0.0 28 59
+ 0.411344 1 0 ack 40 ------- 0 3.0 0.0 28 59
- 0.411344 1 0 ack 40 ------- 0 3.0 0.0 28 59
r 0.411392 1 0 ack 40 ------- 0 3.0 0.0 16 47
+ 0.411392 0 1 tcp 1040 ------- 0 0.0 3.0 33 64
+ 0.411392 0 1 tcp 1040 ------- 0 0.0 3.0 34 65
- 0.411392 0 1 tcp 1040 ------- 0 0.0 3.0 32 63
r 0.412176 2 1 ack 40 ------- 0 3.0 0.0 29 60
+ 0.412176 1 0 ack 40 ------- 0 3.0 0.0 29 60
- 0.412176 1 0 ack 40 ------- 0 3.0 0.0 29 60
r 0.412224 1 0 ack 40 ------- 0 3.0 0.0 17 48
+ 0.412224 0 1 tcp 1040 ------- 0 0.0 3.0 35 66
+ 0.412224 0 1 tcp 1040 ------- 0 0.0 3.0 36 67
- 0.412224 0 1 tcp 1040 ------- 0 0.0 3.0 33 64
r 0.413008 2 1 ack 40 ------- 0 3.0 0.0 30 61
+ 0.413008 1 0 ack 40 ------- 0 3.0 0.0 30 61
- 0.413008 1 0 ack 40 ------- 0 3.0 0.0 30 61
r 0.413056 1 0 ack 40 ------- 0 3.0 0.0 18 49
+ 0.413056 0 1 tcp 1040 ------- 0 0.0 3.0 37 68
+ 0.413056 0 1 tcp 1040 ------- 0 0.0 3.0 38 69
- 0.413056 0 1 tcp 1040 ------- 0 0.0 3.0 34 65
r 0.413888 1 0 ack 40 ------- 0 3.0 0.0 19 50
+ 0.413888 0 1 tcp 1040 ------- 0 0.0 3.0 39 70
- 0.413888 0 1 tcp 1040 ------- 0 0.0 3.0 35 66
r 0.41472 1 0 ack 40 ------- 0 3.0 0.0 20 51
+ 0.41472 0 1 tcp 1040 ------- 0 0.0 3.0 40 71
- 0.41472 0 1 tcp 1040 ------- 0 0.0 3.0 36 67
r 0.415552 1 0 ack 40 ------- 0 3.0 0.0 21 52
+ 0.415552 0 1 tcp 1040 ------- 0 0.0 3.0 41 72
- 0.415552 0 1 tcp 1040 ------- 0 0.0 3.0 37 68
r 0.416384 1 0 ack 40 ------- 0 3.0 0.0 22 53
+ 0.416384 0 1 tcp 1040 ------- 0 0.0 3.0 42 73
- 0.416384 0 1 tcp 1040 ------- 0 0.0 3.0 38 69
r 0.417216 1 0 ack 40 ------- 0 3.0 0.0 23 54
+ 0.417216 0 1 tcp 1040 ------- 0 0.0 3.0 43 74
- 0.417216 0 1 tcp 1040 ------- 0 0.0 3.0 39 70
r 0.418048 1 0 ack 40 ------- 0 3.0 0.0 24 55
+ 0.418048 0 1 tcp 1040 ------- 0 0.0 3.0 44 75
- 0.418048 0 1 tcp 1040 ------- 0 0.0 3.0 40 71
r 0.41888 1 0 ack 40 ------- 0 3.0 0.0 25 56
+ 0.41888 0 1 tcp 1040 ------- 0 0.0 3.0 45 76
- 0.41888 0 1 tcp 1040 ------- 0 0.0 3.0 41 72
r 0.419712 1 0 ack 40 ------- 0 3.0 0.0 26 57
+ 0.419712 0 1 tcp 1040 ------- 0 0.0 3.0 46 77
- 0.419712 0 1 tcp 1040 ------- 0 0.0 3.0 42 73
r 0.420544 1 0 ack 40 ------- 0 3.0 0.0 27 58
+ 0.420544 0 1 tcp 1040 ------- 0 0.0 3.0 47 78
- 0.420544 0 1 tcp 1040 ------- 0 0.0 3.0 43 74
r 0.421376 1 0 ack 40 ------- 0 3.0 0.0 28 59
+ 0.421376 0 1 tcp 1040 ------- 0 0.0 3.0 48 79
- 0.421376 0 1 tcp 1040 ------- 0 0.0 3.0 44 75
r 0.421392 0 1 tcp 1040 ------- 0 0.0 3.0 31 62
+ 0.421392 1 2 tcp 1040 ------- 0 0.0 3.0 31 62
- 0.421392 1 2 tcp 1040 ------- 0 0.0 3.0 31 62
r 0.422208 1 0 ack 40 ------- 0 3.0 0.0 29 60
+ 0.422208 0 1 tcp 1040 ------- 0 0.0 3.0 49 80
- 0.422208 0 1 tcp 1040 ------- 0 0.0 3.0 45 76
r 0.422224 0 1 tcp 1040 ------- 0 0.0 3.0 32 63
+ 0.422224 1 2 tcp 1040 ------- 0 0.0 3.0 32 63
- 0.422224 1 2 tcp 1040 ------- 0 0.0 3.0 32 63
r 0.42304 1 0 ack 40 ------- 0 3.0 0.0 30 61
+ 0.42304 0 1 tcp 1040 ------- 0 0.0 3.0 50 81
- 0.42304 0 1 tcp 1040 ------- 0 0.0 3.0 46 77
r 0.423056 0 1 tcp 1040 ------- 0 0.0 3.0 33 64
+ 0.423056 1 2 tcp 1040 ------- 0 0.0 3.0 33 64
- 0.423056 1 2 tcp 1040 ------- 0 0.0 3.0 33 64
- 0.423872 0 1 tcp 1040 ------- 0 0.0 3.0 47 78
r 0.423888 0 1 tcp 1040 ------- 0 0.0 3.0 34 65
+ 0.423888 1 2 tcp 1040 ------- 0 0.0 3.0 34 65
- 0.423888 1 2 tcp 1040 ------- 0 0.0 3.0 34 65
- 0.424704 0 1 tcp 1040 ------- 0 0.0 3.0 48 79
r 0.42472 0 1 tcp 1040 ------- 0 0.0 3.0 35 66
+ 0.42472 1 2 tcp 1040 ------- 0 0.0 3.0 35 66
- 0.42472 1 2 tcp 1040 ------- 0 0.0 3.0 35 66
- 0.425536 0 1 tcp 1040 ------- 0 0.0 3.0 49 80
r 0.425552 0 1 tcp 1040 ------- 0 0.0 3.0 36 67
+ 0.425552 1 2 tcp 1040 ------- 0 0.0 3.0 36 67
- 0.425552 1 2 tcp 1040 ------- 0 0.0 3.0 36 67
- 0.426368 0 1 tcp 1040 ------- 0 0.0 3.0 50 81
r 0.426384 0 1 tcp 1040 ------- 0 0.0 3.0 37 68
+ 0.426384 1 2 tcp 1040 ------- 0 0.0 3.0 37 68
- 0.426384 1 2 tcp 1040 ------- 0 0.0 3.0 37 68
r 0.427216 0 1 tcp 1040 ------- 0 0.0 3.0 38 69
+ 0.427216 1 2 tcp 1040 ------- 0 0.0 3.0 38 69
- 0.427216 1 2 tcp 1040 ------- 0 0.0 3.0 38 69
r 0.428048 0 1 tcp 1040 ------- 0 0.0 3.0 39 70
+ 0.428048 1 2 tcp 1040 ------- 0 0.0 3.0 39 70
- 0.428048 1 2 tcp 1040 ------- 0 0.0 3.0 39 70
r 0.42888 0 1 tcp 1040 ------- 0 0.0 3.0 40 71
+ 0.42888 1 2 tcp 1040 ------- 0 0.0 3.0 40 71
- 0.42888 1 2 tcp 1040 ------- 0 0.0 3.0 40 71
r 0.429712 0 1 tcp 1040 ------- 0 0.0 3.0 41 72
+ 0.429712 1 2 tcp 1040 ------- 0 0.0 3.0 41 72
- 0.429712 1 2 tcp 1040 ------- 0 0.0 3.0 41 72
r 0.430544 0 1 tcp 1040 ------- 0 0.0 3.0 42 73
+ 0.430544 1 2 tcp 1040 ------- 0 0.0 3.0 42 73
- 0.430544 1 2 tcp 1040 ------- 0 0.0 3.0 42 73
r 0.431376 0 1 tcp 1040 ------- 0 0.0 3.0 43 74
+ 0.431376 1 2 tcp 1040 ------- 0 0.0 3.0 43 74
- 0.431376 1 2 tcp 1040 ------- 0 0.0 3.0 43 74
r 0.432208 0 1 tcp 1040 ------- 0 0.0 3.0 44 75
+ 0.432208 1 2 tcp 1040 ------- 0 0.0 3.0 44 75
- 0.432208 1 2 tcp 1040 ------- 0 0.0 3.0 44 75
r 0.432224 1 2 tcp 1040 ------- 0 0.0 3.0 31 62
+ 0.432224 2 3 tcp 1040 ------- 0 0.0 3.0 31 62
- 0.432224 2 3 tcp 1040 ------- 0 0.0 3.0 31 62
r 0.43304 0 1 tcp 1040 ------- 0 0.0 3.0 45 76
+ 0.43304 1 2 tcp 1040 ------- 0 0.0 3.0 45 76
- 0.43304 1 2 tcp 1040 ------- 0 0.0 3.0 45 76