+ 0.1 1 2 cbr 210 ------- 0 1.0 2.0 0 0
- 0.1 1 2 cbr 210 ------- 0 1.0 2.0 0 0
+ 0.10168 1 2 cbr 210 ------- 0 1.0 2.0 1 1
- 0.10168 1 2 cbr 210 ------- 0 1.0 2.0 1 1
+ 0.10336 1 2 cbr 210 ------- 0 1.0 2.0 2 2
- 0.10336 1 2 cbr 210 ------- 0 1.0 2.0 2 2
+ 0.10504 1 2 cbr 210 ------- 0 1.0 2.0 3 3
- 0.10504 1 2 cbr 210 ------- 0 1.0 2.0 3 3
+ 0.10672 1 2 cbr 210 ------- 0 1.0 2.0 4 4
- 0.10672 1 2 cbr 210 ------- 0 1.0 2.0 4 4
+ 0.1084 1 2 cbr 210 ------- 0 1.0 2.0 5 5
- 0.1084 1 2 cbr 210 ------- 0 1.0 2.0 5 5
+ 0.11008 1 2 cbr 210 ------- 0 1.0 2.0 6 6
- 0.11008 1 2 cbr 210 ------- 0 1.0 2.0 6 6
r 0.110168 1 2 cbr 210 ------- 0 1.0 2.0 0 0
+ 0.11176 1 2 cbr 210 ------- 0 1.0 2.0 7 7
- 0.11176 1 2 cbr 210 ------- 0 1.0 2.0 7 7
r 0.111848 1 2 cbr 210 ------- 0 1.0 2.0 1 1
+ 0.11344 1 2 cbr 210 ------- 0 1.0 2.0 8 8
- 0.11344 1 2 cbr 210 ------- 0 1.0 2.0 8 8
r 0.113528 1 2 cbr 210 ------- 0 1.0 2.0 2 2
+ 0.11512 1 2 cbr 210 ------- 0 1.0 2.0 9 9
- 0.11512 1 2 cbr 210 ------- 0 1.0 2.0 9 9
r 0.115208 1 2 cbr 210 ------- 0 1.0 2.0 3 3
+ 0.1168 1 2 cbr 210 ------- 0 1.0 2.0 10 10
- 0.1168 1 2 cbr 210 ------- 0 1.0 2.0 10 10
r 0.116888 1 2 cbr 210 ------- 0 1.0 2.0 4 4
+ 0.11848 1 2 cbr 210 ------- 0 1.0 2.0 11 11
- 0.11848 1 2 cbr 210 ------- 0 1.0 2.0 11 11
r 0.118568 1 2 cbr 210 ------- 0 1.0 2.0 5 5
+ 0.12016 1 2 cbr 210 ------- 0 1.0 2.0 12 12
- 0.12016 1 2 cbr 210 ------- 0 1.0 2.0 12 12
r 0.120248 1 2 cbr 210 ------- 0 1.0 2.0 6 6
+ 0.12184 1 2 cbr 210 ------- 0 1.0 2.0 13 13
- 0.12184 1 2 cbr 210 ------- 0 1.0 2.0 13 13
r 0.121928 1 2 cbr 210 ------- 0 1.0 2.0 7 7
+ 0.12352 1 2 cbr 210 ------- 0 1.0 2.0 14 14
- 0.12352 1 2 cbr 210 ------- 0 1.0 2.0 14 14
r 0.123608 1 2 cbr 210 ------- 0 1.0 2.0 8 8
+ 0.1252 1 2 cbr 210 ------- 0 1.0 2.0 15 15
- 0.1252 1 2 cbr 210 ------- 0 1.0 2.0 15 15
r 0.125288 1 2 cbr 210 ------- 0 1.0 2.0 9 9
+ 0.12688 1 2 cbr 210 ------- 0 1.0 2.0 16 16
- 0.12688 1 2 cbr 210 ------- 0 1.0 2.0 16 16
r 0.126968 1 2 cbr 210 ------- 0 1.0 2.0 10 10
+ 0.12856 1 2 cbr 210 ------- 0 1.0 2.0 17 17
- 0.12856 1 2 cbr 210 ------- 0 1.0 2.0 17 17
r 0.128648 1 2 cbr 210 ------- 0 1.0 2.0 11 11
+ 0.13024 1 2 cbr 210 ------- 0 1.0 2.0 18 18
- 0.13024 1 2 cbr 210 ------- 0 1.0 2.0 18 18
r 0.130328 1 2 cbr 210 ------- 0 1.0 2.0 12 12
+ 0.13192 1 2 cbr 210 ------- 0 1.0 2.0 19 19
- 0.13192 1 2 cbr 210 ------- 0 1.0 2.0 19 19
r 0.132008 1 2 cbr 210 ------- 0 1.0 2.0 13 13
+ 0.1336 1 2 cbr 210 ------- 0 1.0 2.0 20 20
- 0.1336 1 2 cbr 210 ------- 0 1.0 2.0 20 20
r 0.133688 1 2 cbr 210 ------- 0 1.0 2.0 14 14
+ 0.13528 1 2 cbr 210 ------- 0 1.0 2.0 21 21
- 0.13528 1 2 cbr 210 ------- 0 1.0 2.0 21 21
r 0.135368 1 2 cbr 210 ------- 0 1.0 2.0 15 15
+ 0.13696 1 2 cbr 210 ------- 0 1.0 2.0 22 22
- 0.13696 1 2 cbr 210 ------- 0 1.0 2.0 22 22
r 0.137048 1 2 cbr 210 ------- 0 1.0 2.0 16 16
+ 0.13864 1 2 cbr 210 ------- 0 1.0 2.0 23 23
- 0.13864 1 2 cbr 210 ------- 0 1.0 2.0 23 23
r 0.138728 1 2 cbr 210 ------- 0 1.0 2.0 17 17
+ 0.14032 1 2 cbr 210 ------- 0 1.0 2.0 24 24
- 0.14032 1 2 cbr 210 ------- 0 1.0 2.0 24 24
r 0.140408 1 2 cbr 210 ------- 0 1.0 2.0 18 18
+ 0.142 1 2 cbr 210 ------- 0 1.0 2.0 25 25
- 0.142 1 2 cbr 210 ------- 0 1.0 2.0 25 25
r 0.142088 1 2 cbr 210 ------- 0 1.0 2.0 19 19
+ 0.14368 1 2 cbr 210 ------- 0 1.0 2.0 26 26
- 0.14368 1 2 cbr 210 ------- 0 1.0 2.0 26 26
r 0.143768 1 2 cbr 210 ------- 0 1.0 2.0 20 20
+ 0.14536 1 2 cbr 210 ------- 0 1.0 2.0 27 27
- 0.14536 1 2 cbr 210 ------- 0 1.0 2.0 27 27
r 0.145448 1 2 cbr 210 ------- 0 1.0 2.0 21 21
+ 0.14704 1 2 cbr 210 ------- 0 1.0 2.0 28 28
- 0.14704 1 2 cbr 210 ------- 0 1.0 2.0 28 28
r 0.147128 1 2 cbr 210 ------- 0 1.0 2.0 22 22
+ 0.14872 1 2 cbr 210 ------- 0 1.0 2.0 29 29
- 0.14872 1 2 cbr 210 ------- 0 1.0 2.0 29 29
r 0.148808 1 2 cbr 210 ------- 0 1.0 2.0 23 23
+ 0.1504 1 2 cbr 210 ------- 0 1.0 2.0 30 30
- 0.1504 1 2 cbr 210 ------- 0 1.0 2.0 30 30
r 0.150488 1 2 cbr 210 ------- 0 1.0 2.0 24 24
+ 0.15208 1 2 cbr 210 ------- 0 1.0 2.0 31 31
- 0.15208 1 2 cbr 210 ------- 0 1.0 2.0 31 31
r 0.152168 1 2 cbr 210 ------- 0 1.0 2.0 25 25
+ 0.15376 1 2 cbr 210 ------- 0 1.0 2.0 32 32
- 0.15376 1 2 cbr 210 ------- 0 1.0 2.0 32 32
r 0.153848 1 2 cbr 210 ------- 0 1.0 2.0 26 26
+ 0.15544 1 2 cbr 210 ------- 0 1.0 2.0 33 33
- 0.15544 1 2 cbr 210 ------- 0 1.0 2.0 33 33
r 0.155528 1 2 cbr 210 ------- 0 1.0 2.0 27 27
+ 0.15712 1 2 cbr 210 ------- 0 1.0 2.0 34 34
- 0.15712 1 2 cbr 210 ------- 0 1.0 2.0 34 34
r 0.157208 1 2 cbr 210 ------- 0 1.0 2.0 28 28
+ 0.1588 1 2 cbr 210 ------- 0 1.0 2.0 35 35
- 0.1588 1 2 cbr 210 ------- 0 1.0 2.0 35 35
r 0.158888 1 2 cbr 210 ------- 0 1.0 2.0 29 29
+ 0.16048 1 2 cbr 210 ------- 0 1.0 2.0 36 36
- 0.16048 1 2 cbr 210 ------- 0 1.0 2.0 36 36
r 0.160568 1 2 cbr 210 ------- 0 1.0 2.0 30 30
+ 0.16216 1 2 cbr 210 ------- 0 1.0 2.0 37 37
- 0.16216 1 2 cbr 210 ------- 0 1.0 2.0 37 37
r 0.162248 1 2 cbr 210 ------- 0 1.0 2.0 31 31
+ 0.16384 1 2 cbr 210 ------- 0 1.0 2.0 38 38
- 0.16384 1 2 cbr 210 ------- 0 1.0 2.0 38 38
r 0.163928 1 2 cbr 210 ------- 0 1.0 2.0 32 32
+ 0.16552 1 2 cbr 210 ------- 0 1.0 2.0 39 39
- 0.16552 1 2 cbr 210 ------- 0 1.0 2.0 39 39
r 0.165608 1 2 cbr 210 ------- 0 1.0 2.0 33 33
+ 0.1672 1 2 cbr 210 ------- 0 1.0 2.0 40 40
- 0.1672 1 2 cbr 210 ------- 0 1.0 2.0 40 40
r 0.167288 1 2 cbr 210 ------- 0 1.0 2.0 34 34
+ 0.16888 1 2 cbr 210 ------- 0 1.0 2.0 41 41
- 0.16888 1 2 cbr 210 ------- 0 1.0 2.0 41 41
r 0.168968 1 2 cbr 210 ------- 0 1.0 2.0 35 35
+ 0.17056 1 2 cbr 210 ------- 0 1.0 2.0 42 42
- 0.17056 1 2 cbr 210 ------- 0 1.0 2.0 42 42
r 0.170648 1 2 cbr 210 ------- 0 1.0 2.0 36 36
+ 0.17224 1 2 cbr 210 ------- 0 1.0 2.0 43 43
- 0.17224 1 2 cbr 210 ------- 0 1.0 2.0 43 43
r 0.172328 1 2 cbr 210 ------- 0 1.0 2.0 37 37
+ 0.17392 1 2 cbr 210 ------- 0 1.0 2.0 44 44
- 0.17392 1 2 cbr 210 ------- 0 1.0 2.0 44 44
r 0.174008 1 2 cbr 210 ------- 0 1.0 2.0 38 38
+ 0.1756 1 2 cbr 210 ------- 0 1.0 2.0 45 45
- 0.1756 1 2 cbr 210 ------- 0 1.0 2.0 45 45
r 0.175688 1 2 cbr 210 ------- 0 1.0 2.0 39 39
+ 0.17728 1 2 cbr 210 ------- 0 1.0 2.0 46 46
- 0.17728 1 2 cbr 210 ------- 0 1.0 2.0 46 46
r 0.177368 1 2 cbr 210 ------- 0 1.0 2.0 40 40
+ 0.17896 1 2 cbr 210 ------- 0 1.0 2.0 47 47
- 0.17896 1 2 cbr 210 ------- 0 1.0 2.0 47 47
r 0.179048 1 2 cbr 210 ------- 0 1.0 2.0 41 41
+ 0.18064 1 2 cbr 210 ------- 0 1.0 2.0 48 48
- 0.18064 1 2 cbr 210 ------- 0 1.0 2.0 48 48
r 0.180728 1 2 cbr 210 ------- 0 1.0 2.0 42 42
+ 0.18232 1 2 cbr 210 ------- 0 1.0 2.0 49 49
- 0.18232 1 2 cbr 210 ------- 0 1.0 2.0 49 49
r 0.182408 1 2 cbr 210 ------- 0 1.0 2.0 43 43
+ 0.184 1 2 cbr 210 ------- 0 1.0 2.0 50 50
- 0.184 1 2 cbr 210 ------- 0 1.0 2.0 50 50
r 0.184088 1 2 cbr 210 ------- 0 1.0 2.0 44 44
+ 0.18568 1 2 cbr 210 ------- 0 1.0 2.0 51 51
- 0.18568 1 2 cbr 210 ------- 0 1.0 2.0 51 51
r 0.185768 1 2 cbr 210 ------- 0 1.0 2.0 45 45
+ 0.18736 1 2 cbr 210 ------- 0 1.0 2.0 52 52
- 0.18736 1 2 cbr 210 ------- 0 1.0 2.0 52 52
r 0.187448 1 2 cbr 210 ------- 0 1.0 2.0 46 46
+ 0.18904 1 2 cbr 210 ------- 0 1.0 2.0 53 53
- 0.18904 1 2 cbr 210 ------- 0 1.0 2.0 53 53
r 0.189128 1 2 cbr 210 ------- 0 1.0 2.0 47 47
+ 0.19072 1 2 cbr 210 ------- 0 1.0 2.0 54 54
- 0.19072 1 2 cbr 210 ------- 0 1.0 2.0 54 54
r 0.190808 1 2 cbr 210 ------- 0 1.0 2.0 48 48
+ 0.1924 1 2 cbr 210 ------- 0 1.0 2.0 55 55
- 0.1924 1 2 cbr 210 ------- 0 1.0 2.0 55 55
r 0.192488 1 2 cbr 210 ------- 0 1.0 2.0 49 49
+ 0.19408 1 2 cbr 210 ------- 0 1.0 2.0 56 56
- 0.19408 1 2 cbr 210 ------- 0 1.0 2.0 56 56
r 0.194168 1 2 cbr 210 ------- 0 1.0 2.0 50 50
+ 0.19576 1 2 cbr 210 ------- 0 1.0 2.0 57 57
- 0.19576 1 2 cbr 210 ------- 0 1.0 2.0 57 57
r 0.195848 1 2 cbr 210 ------- 0 1.0 2.0 51 51
+ 0.19744 1 2 cbr 210 ------- 0 1.0 2.0 58 58
- 0.19744 1 2 cbr 210 ------- 0 1.0 2.0 58 58
r 0.197528 1 2 cbr 210 ------- 0 1.0 2.0 52 52
+ 0.19912 1 2 cbr 210 ------- 0 1.0 2.0 59 59
- 0.19912 1 2 cbr 210 ------- 0 1.0 2.0 59 59
r 0.199208 1 2 cbr 210 ------- 0 1.0 2.0 53 53
+ 0.2008 1 2 cbr 210 ------- 0 1.0 2.0 60 60
- 0.2008 1 2 cbr 210 ------- 0 1.0 2.0 60 60
r 0.200888 1 2 cbr 210 ------- 0 1.0 2.0 54 54
+ 0.20248 1 2 cbr 210 ------- 0 1.0 2.0 61 61
- 0.20248 1 2 cbr 210 ------- 0 1.0 2.0 61 61
r 0.202568 1 2 cbr 210 ------- 0 1.0 2.0 55 55
+ 0.20416 1 2 cbr 210 ------- 0 1.0 2.0 62 62
- 0.20416 1 2 cbr 210 ------- 0 1.0 2.0 62 62
r 0.204248 1 2 cbr 210 ------- 0 1.0 2.0 56 56
+ 0.20584 1 2 cbr 210 ------- 0 1.0 2.0 63 63
- 0.20584 1 2 cbr 210 ------- 0 1.0 2.0 63 63
r 0.205928 1 2 cbr 210 ------- 0 1.0 2.0 57 57
+ 0.20752 1 2 cbr 210 ------- 0 1.0 2.0 64 64
- 0.20752 1 2 cbr 210 ------- 0 1.0 2.0 64 64
r 0.207608 1 2 cbr 210 ------- 0 1.0 2.0 58 58
+ 0.2092 1 2 cbr 210 ------- 0 1.0 2.0 65 65
- 0.2092 1 2 cbr 210 ------- 0 1.0 2.0 65 65
r 0.209288 1 2 cbr 210 ------- 0 1.0 2.0 59 59
+ 0.21088 1 2 cbr 210 ------- 0 1.0 2.0 66 66
- 0.21088 1 2 cbr 210 ------- 0 1.0 2.0 66 66
r 0.210968 1 2 cbr 210 ------- 0 1.0 2.0 60 60
+ 0.21256 1 2 cbr 210 ------- 0 1.0 2.0 67 67
- 0.21256 1 2 cbr 210 ------- 0 1.0 2.0 67 67
r 0.212648 1 2 cbr 210 ------- 0 1.0 2.0 61 61
+ 0.21424 1 2 cbr 210 ------- 0 1.0 2.0 68 68
- 0.21424 1 2 cbr 210 ------- 0 1.0 2.0 68 68
r 0.214328 1 2 cbr 210 ------- 0 1.0 2.0 62 62
+ 0.21592 1 2 cbr 210 ------- 0 1.0 2.0 69 69
- 0.21592 1 2 cbr 210 ------- 0 1.0 2.0 69 69
r 0.216008 1 2 cbr 210 ------- 0 1.0 2.0 63 63
+ 0.2176 1 2 cbr 210 ------- 0 1.0 2.0 70 70
- 0.2176 1 2 cbr 210 ------- 0 1.0 2.0 70 70
r 0.217688 1 2 cbr 210 ------- 0 1.0 2.0 64 64
+ 0.21928 1 2 cbr 210 ------- 0 1.0 2.0 71 71
- 0.21928 1 2 cbr 210 ------- 0 1.0 2.0 71 71
r 0.219368 1 2 cbr 210 ------- 0 1.0 2.0 65 65
+ 0.22096 1 2 cbr 210 ------- 0 1.0 2.0 72 72
- 0.22096 1 2 cbr 210 ------- 0 1.0 2.0 72 72
r 0.221048 1 2 cbr 210 ------- 0 1.0 2.0 66 66
+ 0.22264 1 2 cbr 210 ------- 0 1.0 2.0 73 73
- 0.22264 1 2 cbr 210 ------- 0 1.0 2.0 73 73
r 0.222728 1 2 cbr 210 ------- 0 1.0 2.0 67 67
+ 0.22432 1 2 cbr 210 ------- 0 1.0 2.0 74 74
- 0.22432 1 2 cbr 210 ------- 0 1.0 2.0 74 74
r 0.224408 1 2 cbr 210 ------- 0 1.0 2.0 68 68
+ 0.226 1 2 cbr 210 ------- 0 1.0 2.0 75 75
- 0.226 1 2 cbr 210 ------- 0 1.0 2.0 75 75
r 0.226088 1 2 cbr 210 ------- 0 1.0 2.0 69 69
+ 0.22768 1 2 cbr 210 ------- 0 1.0 2.0 76 76
- 0.22768 1 2 cbr 210 ------- 0 1.0 2.0 76 76
r 0.227768 1 2 cbr 210 ------- 0 1.0 2.0 70 70
+ 0.22936 1 2 cbr 210 ------- 0 1.0 2.0 77 77
- 0.22936 1 2 cbr 210 ------- 0 1.0 2.0 77 77
r 0.229448 1 2 cbr 210 ------- 0 1.0 2.0 71 71
+ 0.23104 1 2 cbr 210 ------- 0 1.0 2.0 78 78
- 0.23104 1 2 cbr 210 ------- 0 1.0 2.0 78 78
r 0.231128 1 2 cbr 210 ------- 0 1.0 2.0 72 72
+ 0.23272 1 2 cbr 210 ------- 0 1.0 2.0 79 79
- 0.23272 1 2 cbr 210 ------- 0 1.0 2.0 79 79
r 0.232808 1 2 cbr 210 ------- 0 1.0 2.0 73 73
+ 0.2344 1 2 cbr 210 ------- 0 1.0 2.0 80 80
- 0.2344 1 2 cbr 210 ------- 0 1.0 2.0 80 80
r 0.234488 1 2 cbr 210 ------- 0 1.0 2.0 74 74
+ 0.23608 1 2 cbr 210 ------- 0 1.0 2.0 81 81
- 0.23608 1 2 cbr 210 ------- 0 1.0 2.0 81 81
r 0.236168 1 2 cbr 210 ------- 0 1.0 2.0 75 75
+ 0.23776 1 2 cbr 210 ------- 0 1.0 2.0 82 82
- 0.23776 1 2 cbr 210 ------- 0 1.0 2.0 82 82
r 0.237848 1 2 cbr 210 ------- 0 1.0 2.0 76 76
+ 0.23944 1 2 cbr 210 ------- 0 1.0 2.0 83 83
- 0.23944 1 2 cbr 210 ------- 0 1.0 2.0 83 83
r 0.239528 1 2 cbr 210 ------- 0 1.0 2.0 77 77
+ 0.24112 1 2 cbr 210 ------- 0 1.0 2.0 84 84
- 0.24112 1 2 cbr 210 ------- 0 1.0 2.0 84 84
r 0.241208 1 2 cbr 210 ------- 0 1.0 2.0 78 78
+ 0.2428 1 2 cbr 210 ------- 0 1.0 2.0 85 85
- 0.2428 1 2 cbr 210 ------- 0 1.0 2.0 85 85
r 0.242888 1 2 cbr 210 ------- 0 1.0 2.0 79 79
+ 0.24448 1 2 cbr 210 ------- 0 1.0 2.0 86 86
- 0.24448 1 2 cbr 210 ------- 0 1.0 2.0 86 86
r 0.244568 1 2 cbr 210 ------- 0 1.0 2.0 80 80
+ 0.24616 1 2 cbr 210 ------- 0 1.0 2.0 87 87
- 0.24616 1 2 cbr 210 ------- 0 1.0 2.0 87 87
r 0.246248 1 2 cbr 210 ------- 0 1.0 2.0 81 81
+ 0.24784 1 2 cbr 210 ------- 0 1.0 2.0 88 88
- 0.24784 1 2 cbr 210 ------- 0 1.0 2.0 88 88
r 0.247928 1 2 cbr 210 ------- 0 1.0 2.0 82 82
+ 0.24952 1 2 cbr 210 ------- 0 1.0 2.0 89 89
- 0.24952 1 2 cbr 210 ------- 0 1.0 2.0 89 89
r 0.249608 1 2 cbr 210 ------- 0 1.0 2.0 83 83
+ 0.2512 1 2 cbr 210 ------- 0 1.0 2.0 90 90
- 0.2512 1 2 cbr 210 ------- 0 1.0 2.0 90 90
r 0.251288 1 2 cbr 210 ------- 0 1.0 2.0 84 84
+ 0.25288 1 2 cbr 210 ------- 0 1.0 2.0 91 91
- 0.25288 1 2 cbr 210 ------- 0 1.0 2.0 91 91
r 0.252968 1 2 cbr 210 ------- 0 1.0 2.0 85 85
+ 0.25456 1 2 cbr 210 ------- 0 1.0 2.0 92 92
- 0.25456 1 2 cbr 210 ------- 0 1.0 2.0 92 92
r 0.254648 1 2 cbr 210 ------- 0 1.0 2.0 86 86
+ 0.25624 1 2 cbr 210 ------- 0 1.0 2.0 93 93
- 0.25624 1 2 cbr 210 ------- 0 1.0 2.0 93 93
r 0.256328 1 2 cbr 210 ------- 0 1.0 2.0 87 87
+ 0.25792 1 2 cbr 210 ------- 0 1.0 2.0 94 94
- 0.25792 1 2 cbr 210 ------- 0 1.0 2.0 94 94
r 0.258008 1 2 cbr 210 ------- 0 1.0 2.0 88 88
+ 0.2596 1 2 cbr 210 ------- 0 1.0 2.0 95 95
- 0.2596 1 2 cbr 210 ------- 0 1.0 2.0 95 95
r 0.259688 1 2 cbr 210 ------- 0 1.0 2.0 89 89
+ 0.26128 1 2 cbr 210 ------- 0 1.0 2.0 96 96
- 0.26128 1 2 cbr 210 ------- 0 1.0 2.0 96 96
r 0.261368 1 2 cbr 210 ------- 0 1.0 2.0 90 90
+ 0.26296 1 2 cbr 210 ------- 0 1.0 2.0 97 97
- 0.26296 1 2 cbr 210 ------- 0 1.0 2.0 97 97
r 0.263048 1 2 cbr 210 ------- 0 1.0 2.0 91 91
+ 0.26464 1 2 cbr 210 ------- 0 1.0 2.0 98 98
- 0.26464 1 2 cbr 210 ------- 0 1.0 2.0 98 98
r 0.264728 1 2 cbr 210 ------- 0 1.0 2.0 92 92
+ 0.26632 1 2 cbr 210 ------- 0 1.0 2.0 99 99
- 0.26632 1 2 cbr 210 ------- 0 1.0 2.0 99 99
r 0.266408 1 2 cbr 210 ------- 0 1.0 2.0 93 93
+ 0.268 1 2 cbr 210 ------- 0 1.0 2.0 100 100
- 0.268 1 2 cbr 210 ------- 0 1.0 2.0 100 100
r 0.268088 1 2 cbr 210 ------- 0 1.0 2.0 94 94
+ 0.26968 1 2 cbr 210 ------- 0 1.0 2.0 101 101
- 0.26968 1 2 cbr 210 ------- 0 1.0 2.0 101 101
r 0.269768 1 2 cbr 210 ------- 0 1.0 2.0 95 95
+ 0.27136 1 2 cbr 210 ------- 0 1.0 2.0 102 102
- 0.27136 1 2 cbr 210 ------- 0 1.0 2.0 102 102
r 0.271448 1 2 cbr 210 ------- 0 1.0 2.0 96 96
+ 0.27304 1 2 cbr 210 ------- 0 1.0 2.0 103 103
- 0.27304 1 2 cbr 210 ------- 0 1.0 2.0 103 103
r 0.273128 1 2 cbr 210 ------- 0 1.0 2.0 97 97
+ 0.27472 1 2 cbr 210 ------- 0 1.0 2.0 104 104
- 0.27472 1 2 cbr 210 ------- 0 1.0 2.0 104 104
r 0.274808 1 2 cbr 210 ------- 0 1.0 2.0 98 98
+ 0.2764 1 2 cbr 210 ------- 0 1.0 2.0 105 105
- 0.2764 1 2 cbr 210 ------- 0 1.0 2.0 105 105
r 0.276488 1 2 cbr 210 ------- 0 1.0 2.0 99 99
+ 0.27808 1 2 cbr 210 ------- 0 1.0 2.0 106 106
- 0.27808 1 2 cbr 210 ------- 0 1.0 2.0 106 106
r 0.278168 1 2 cbr 210 ------- 0 1.0 2.0 100 100
+ 0.27976 1 2 cbr 210 ------- 0 1.0 2.0 107 107
- 0.27976 1 2 cbr 210 ------- 0 1.0 2.0 107 107
r 0.279848 1 2 cbr 210 ------- 0 1.0 2.0 101 101
+ 0.28144 1 2 cbr 210 ------- 0 1.0 2.0 108 108
- 0.28144 1 2 cbr 210 ------- 0 1.0 2.0 108 108
r 0.281528 1 2 cbr 210 ------- 0 1.0 2.0 102 102
+ 0.28312 1 2 cbr 210 ------- 0 1.0 2.0 109 109
- 0.28312 1 2 cbr 210 ------- 0 1.0 2.0 109 109
r 0.283208 1 2 cbr 210 ------- 0 1.0 2.0 103 103
+ 0.2848 1 2 cbr 210 ------- 0 1.0 2.0 110 110
- 0.2848 1 2 cbr 210 ------- 0 1.0 2.0 110 110
r 0.284888 1 2 cbr 210 ------- 0 1.0 2.0 104 104
+ 0.28648 1 2 cbr 210 ------- 0 1.0 2.0 111 111
- 0.28648 1 2 cbr 210 ------- 0 1.0 2.0 111 111
r 0.286568 1 2 cbr 210 ------- 0 1.0 2.0 105 105
+ 0.28816 1 2 cbr 210 ------- 0 1.0 2.0 112 112
- 0.28816 1 2 cbr 210 ------- 0 1.0 2.0 112 112
r 0.288248 1 2 cbr 210 ------- 0 1.0 2.0 106 106
+ 0.28984 1 2 cbr 210 ------- 0 1.0 2.0 113 113
- 0.28984 1 2 cbr 210 ------- 0 1.0 2.0 113 113
r 0.289928 1 2 cbr 210 ------- 0 1.0 2.0 107 107
+ 0.29152 1 2 cbr 210 ------- 0 1.0 2.0 114 114
- 0.29152 1 2 cbr 210 ------- 0 1.0 2.0 114 114
r 0.291608 1 2 cbr 210 ------- 0 1.0 2.0 108 108
+ 0.2932 1 2 cbr 210 ------- 0 1.0 2.0 115 115
- 0.2932 1 2 cbr 210 ------- 0 1.0 2.0 115 115
r 0.293288 1 2 cbr 210 ------- 0 1.0 2.0 109 109
+ 0.29488 1 2 cbr 210 ------- 0 1.0 2.0 116 116
- 0.29488 1 2 cbr 210 ------- 0 1.0 2.0 116 116
r 0.294968 1 2 cbr 210 ------- 0 1.0 2.0 110 110
+ 0.29656 1 2 cbr 210 ------- 0 1.0 2.0 117 117
- 0.29656 1 2 cbr 210 ------- 0 1.0 2.0 117 117
r 0.296648 1 2 cbr 210 ------- 0 1.0 2.0 111 111
+ 0.29824 1 2 cbr 210 ------- 0 1.0 2.0 118 118
- 0.29824 1 2 cbr 210 ------- 0 1.0 2.0 118 118
r 0.298328 1 2 cbr 210 ------- 0 1.0 2.0 112 112
+ 0.29992 1 2 cbr 210 ------- 0 1.0 2.0 119 119
- 0.29992 1 2 cbr 210 ------- 0 1.0 2.0 119 119
r 0.300008 1 2 cbr 210 ------- 0 1.0 2.0 113 113
+ 0.3016 1 2 cbr 210 ------- 0 1.0 2.0 120 120
- 0.3016 1 2 cbr 210 ------- 0 1.0 2.0 120 120
r 0.301688 1 2 cbr 210 ------- 0 1.0 2.0 114 114
+ 0.30328 1 2 cbr 210 ------- 0 1.0 2.0 121 121
- 0.30328 1 2 cbr 210 ------- 0 1.0 2.0 121 121
r 0.303368 1 2 cbr 210 ------- 0 1.0 2.0 115 115
+ 0.30496 1 2 cbr 210 ------- 0 1.0 2.0 122 122
- 0.30496 1 2 cbr 210 ------- 0 1.0 2.0 122 122
r 0.305048 1 2 cbr 210 ------- 0 1.0 2.0 116 116
+ 0.30664 1 2 cbr 210 ------- 0 1.0 2.0 123 123
- 0.30664 1 2 cbr 210 ------- 0 1.0 2.0 123 123
r 0.306728 1 2 cbr 210 ------- 0 1.0 2.0 117 117
+ 0.30832 1 2 cbr 210 ------- 0 1.0 2.0 124 124
- 0.30832 1 2 cbr 210 ------- 0 1.0 2.0 124 124
r 0.308408 1 2 cbr 210 ------- 0 1.0 2.0 118 118
+ 0.31 1 2 cbr 210 ------- 0 1.0 2.0 125 125
- 0.31 1 2 cbr 210 ------- 0 1.0 2.0 125 125
r 0.310088 1 2 cbr 210 ------- 0 1.0 2.0 119 119
+ 0.31168 1 2 cbr 210 ------- 0 1.0 2.0 126 126
- 0.31168 1 2 cbr 210 ------- 0 1.0 2.0 126 126
r 0.311768 1 2 cbr 210 ------- 0 1.0 2.0 120 120
+ 0.31336 1 2 cbr 210 ------- 0 1.0 2.0 127 127
- 0.31336 1 2 cbr 210 ------- 0 1.0 2.0 127 127
r 0.313448 1 2 cbr 210 ------- 0 1.0 2.0 121 121
+ 0.31504 1 2 cbr 210 ------- 0 1.0 2.0 128 128
- 0.31504 1 2 cbr 210 ------- 0 1.0 2.0 128 128
r 0.315128 1 2 cbr 210 ------- 0 1.0 2.0 122 122
+ 0.31672 1 2 cbr 210 ------- 0 1.0 2.0 129 129
- 0.31672 1 2 cbr 210 ------- 0 1.0 2.0 129 129
r 0.316808 1 2 cbr 210 ------- 0 1.0 2.0 123 123
+ 0.3184 1 2 cbr 210 ------- 0 1.0 2.0 130 130
- 0.3184 1 2 cbr 210 ------- 0 1.0 2.0 130 130
r 0.318488 1 2 cbr 210 ------- 0 1.0 2.0 124 124
+ 0.32008 1 2 cbr 210 ------- 0 1.0 2.0 131 131
- 0.32008 1 2 cbr 210 ------- 0 1.0 2.0 131 131
r 0.320168 1 2 cbr 210 ------- 0 1.0 2.0 125 125
+ 0.32176 1 2 cbr 210 ------- 0 1.0 2.0 132 132
- 0.32176 1 2 cbr 210 ------- 0 1.0 2.0 132 132
r 0.321848 1 2 cbr 210 ------- 0 1.0 2.0 126 126
+ 0.32344 1 2 cbr 210 ------- 0 1.0 2.0 133 133
- 0.32344 1 2 cbr 210 ------- 0 1.0 2.0 133 133
r 0.323528 1 2 cbr 210 ------- 0 1.0 2.0 127 127
+ 0.32512 1 2 cbr 210 ------- 0 1.0 2.0 134 134
- 0.32512 1 2 cbr 210 ------- 0 1.0 2.0 134 134
r 0.325208 1 2 cbr 210 ------- 0 1.0 2.0 128 128
+ 0.3268 1 2 cbr 210 ------- 0 1.0 2.0 135 135
- 0.3268 1 2 cbr 210 ------- 0 1.0 2.0 135 135
r 0.326888 1 2 cbr 210 ------- 0 1.0 2.0 129 129
+ 0.32848 1 2 cbr 210 ------- 0 1.0 2.0 136 136
- 0.32848 1 2 cbr 210 ------- 0 1.0 2.0 136 136
r 0.328568 1 2 cbr 210 ------- 0 1.0 2.0 130 130
+ 0.33016 1 2 cbr 210 ------- 0 1.0 2.0 137 137
- 0.33016 1 2 cbr 210 ------- 0 1.0 2.0 137 137
r 0.330248 1 2 cbr 210 ------- 0 1.0 2.0 131 131
+ 0.33184 1 2 cbr 210 ------- 0 1.0 2.0 138 138
- 0.33184 1 2 cbr 210 ------- 0 1.0 2.0 138 138
r 0.331928 1 2 cbr 210 ------- 0 1.0 2.0 132 132
+ 0.33352 1 2 cbr 210 ------- 0 1.0 2.0 139 139
- 0.33352 1 2 cbr 210 ------- 0 1.0 2.0 139 139
r 0.333608 1 2 cbr 210 ------- 0 1.0 2.0 133 133
+ 0.3352 1 2 cbr 210 ------- 0 1.0 2.0 140 140
- 0.3352 1 2 cbr 210 ------- 0 1.0 2.0 140 140
r 0.335288 1 2 cbr 210 ------- 0 1.0 2.0 134 134
+ 0.33688 1 2 cbr 210 ------- 0 1.0 2.0 141 141
- 0.33688 1 2 cbr 210 ------- 0 1.0 2.0 141 141
r 0.336968 1 2 cbr 210 ------- 0 1.0 2.0 135 135
+ 0.33856 1 2 cbr 210 ------- 0 1.0 2.0 142 142
- 0.33856 1 2 cbr 210 ------- 0 1.0 2.0 142 142
r 0.338648 1 2 cbr 210 ------- 0 1.0 2.0 136 136
+ 0.34024 1 2 cbr 210 ------- 0 1.0 2.0 143 143
- 0.34024 1 2 cbr 210 ------- 0 1.0 2.0 143 143
r 0.340328 1 2 cbr 210 ------- 0 1.0 2.0 137 137
+ 0.34192 1 2 cbr 210 ------- 0 1.0 2.0 144 144
- 0.34192 1 2 cbr 210 ------- 0 1.0 2.0 144 144
r 0.342008 1 2 cbr 210 ------- 0 1.0 2.0 138 138
+ 0.3436 1 2 cbr 210 ------- 0 1.0 2.0 145 145
- 0.3436 1 2 cbr 210 ------- 0 1.0 2.0 145 145
r 0.343688 1 2 cbr 210 ------- 0 1.0 2.0 139 139
+ 0.34528 1 2 cbr 210 ------- 0 1.0 2.0 146 146
- 0.34528 1 2 cbr 210 ------- 0 1.0 2.0 146 146
r 0.345368 1 2 cbr 210 ------- 0 1.0 2.0 140 140
+ 0.34696 1 2 cbr 210 ------- 0 1.0 2.0 147 147
- 0.34696 1 2 cbr 210 ------- 0 1.0 2.0 147 147
r 0.347048 1 2 cbr 210 ------- 0 1.0 2.0 141 141
+ 0.34864 1 2 cbr 210 ------- 0 1.0 2.0 148 148
- 0.34864 1 2 cbr 210 ------- 0 1.0 2.0 148 148
r 0.348728 1 2 cbr 210 ------- 0 1.0 2.0 142 142
+ 0.35032 1 2 cbr 210 ------- 0 1.0 2.0 149 149
- 0.35032 1 2 cbr 210 ------- 0 1.0 2.0 149 149
r 0.350408 1 2 cbr 210 ------- 0 1.0 2.0 143 143
+ 0.352 1 2 cbr 210 ------- 0 1.0 2.0 150 150
- 0.352 1 2 cbr 210 ------- 0 1.0 2.0 150 150
r 0.352088 1 2 cbr 210 ------- 0 1.0 2.0 144 144
+ 0.35368 1 2 cbr 210 ------- 0 1.0 2.0 151 151
- 0.35368 1 2 cbr 210 ------- 0 1.0 2.0 151 151
r 0.353768 1 2 cbr 210 ------- 0 1.0 2.0 145 145
+ 0.35536 1 2 cbr 210 ------- 0 1.0 2.0 152 152
- 0.35536 1 2 cbr 210 ------- 0 1.0 2.0 152 152
r 0.355448 1 2 cbr 210 ------- 0 1.0 2.0 146 146
+ 0.35704 1 2 cbr 210 ------- 0 1.0 2.0 153 153
- 0.35704 1 2 cbr 210 ------- 0 1.0 2.0 153 153
r 0.357128 1 2 cbr 210 ------- 0 1.0 2.0 147 147
+ 0.35872 1 2 cbr 210 ------- 0 1.0 2.0 154 154
- 0.35872 1 2 cbr 210 ------- 0 1.0 2.0 154 154
r 0.358808 1 2 cbr 210 ------- 0 1.0 2.0 148 148
+ 0.3604 1 2 cbr 210 ------- 0 1.0 2.0 155 155
- 0.3604 1 2 cbr 210 ------- 0 1.0 2.0 155 155
r 0.360488 1 2 cbr 210 ------- 0 1.0 2.0 149 149
+ 0.36208 1 2 cbr 210 ------- 0 1.0 2.0 156 156
- 0.36208 1 2 cbr 210 ------- 0 1.0 2.0 156 156
r 0.362168 1 2 cbr 210 ------- 0 1.0 2.0 150 150
+ 0.36376 1 2 cbr 210 ------- 0 1.0 2.0 157 157
- 0.36376 1 2 cbr 210 ------- 0 1.0 2.0 157 157
r 0.363848 1 2 cbr 210 ------- 0 1.0 2.0 151 151
+ 0.36544 1 2 cbr 210 ------- 0 1.0 2.0 158 158
- 0.36544 1 2 cbr 210 ------- 0 1.0 2.0 158 158
r 0.365528 1 2 cbr 210 ------- 0 1.0 2.0 152 152
+ 0.36712 1 2 cbr 210 ------- 0 1.0 2.0 159 159
- 0.36712 1 2 cbr 210 ------- 0 1.0 2.0 159 159
r 0.367208 1 2 cbr 210 ------- 0 1.0 2.0 153 153
+ 0.3688 1 2 cbr 210 ------- 0 1.0 2.0 160 160
- 0.3688 1 2 cbr 210 ------- 0 1.0 2.0 160 160
r 0.368888 1 2 cbr 210 ------- 0 1.0 2.0 154 154
+ 0.37048 1 2 cbr 210 ------- 0 1.0 2.0 161 161
- 0.37048 1 2 cbr 210 ------- 0 1.0 2.0 161 161
r 0.370568 1 2 cbr 210 ------- 0 1.0 2.0 155 155
+ 0.37216 1 2 cbr 210 ------- 0 1.0 2.0 162 162
- 0.37216 1 2 cbr 210 ------- 0 1.0 2.0 162 162
r 0.372248 1 2 cbr 210 ------- 0 1.0 2.0 156 156
+ 0.37384 1 2 cbr 210 ------- 0 1.0 2.0 163 163
- 0.37384 1 2 cbr 210 ------- 0 1.0 2.0 163 163
r 0.373928 1 2 cbr 210 ------- 0 1.0 2.0 157 157
+ 0.37552 1 2 cbr 210 ------- 0 1.0 2.0 164 164
- 0.37552 1 2 cbr 210 ------- 0 1.0 2.0 164 164
r 0.375608 1 2 cbr 210 ------- 0 1.0 2.0 158 158
+ 0.3772 1 2 cbr 210 ------- 0 1.0 2.0 165 165
- 0.3772 1 2 cbr 210 ------- 0 1.0 2.0 165 165
r 0.377288 1 2 cbr 210 ------- 0 1.0 2.0 159 159
+ 0.37888 1 2 cbr 210 ------- 0 1.0 2.0 166 166
- 0.37888 1 2 cbr 210 ------- 0 1.0 2.0 166 166
r 0.378968 1 2 cbr 210 ------- 0 1.0 2.0 160 160
+ 0.38056 1 2 cbr 210 ------- 0 1.0 2.0 167 167
- 0.38056 1 2 cbr 210 ------- 0 1.0 2.0 167 167
r 0.380648 1 2 cbr 210 ------- 0 1.0 2.0 161 161
+ 0.38224 1 2 cbr 210 ------- 0 1.0 2.0 168 168
- 0.38224 1 2 cbr 210 ------- 0 1.0 2.0 168 168
r 0.382328 1 2 cbr 210 ------- 0 1.0 2.0 162 162
+ 0.38392 1 2 cbr 210 ------- 0 1.0 2.0 169 169
- 0.38392 1 2 cbr 210 ------- 0 1.0 2.0 169 169
r 0.384008 1 2 cbr 210 ------- 0 1.0 2.0 163 163
+ 0.3856 1 2 cbr 210 ------- 0 1.0 2.0 170 170
- 0.3856 1 2 cbr 210 ------- 0 1.0 2.0 170 170
r 0.385688 1 2 cbr 210 ------- 0 1.0 2.0 164 164
+ 0.38728 1 2 cbr 210 ------- 0 1.0 2.0 171 171
- 0.38728 1 2 cbr 210 ------- 0 1.0 2.0 171 171
r 0.387368 1 2 cbr 210 ------- 0 1.0 2.0 165 165
+ 0.38896 1 2 cbr 210 ------- 0 1.0 2.0 172 172
- 0.38896 1 2 cbr 210 ------- 0 1.0 2.0 172 172
r 0.389048 1 2 cbr 210 ------- 0 1.0 2.0 166 166
+ 0.39064 1 2 cbr 210 ------- 0 1.0 2.0 173 173
- 0.39064 1 2 cbr 210 ------- 0 1.0 2.0 173 173
r 0.390728 1 2 cbr 210 ------- 0 1.0 2.0 167 167
+ 0.39232 1 2 cbr 210 ------- 0 1.0 2.0 174 174
- 0.39232 1 2 cbr 210 ------- 0 1.0 2.0 174 174
r 0.392408 1 2 cbr 210 ------- 0 1.0 2.0 168 168
+ 0.394 1 2 cbr 210 ------- 0 1.0 2.0 175 175
- 0.394 1 2 cbr 210 ------- 0 1.0 2.0 175 175
r 0.394088 1 2 cbr 210 ------- 0 1.0 2.0 169 169
+ 0.39568 1 2 cbr 210 ------- 0 1.0 2.0 176 176
- 0.39568 1 2 cbr 210 ------- 0 1.0 2.0 176 176
r 0.395768 1 2 cbr 210 ------- 0 1.0 2.0 170 170
+ 0.39736 1 2 cbr 210 ------- 0 1.0 2.0 177 177
- 0.39736 1 2 cbr 210 ------- 0 1.0 2.0 177 177
r 0.397448 1 2 cbr 210 ------- 0 1.0 2.0 171 171
+ 0.39904 1 2 cbr 210 ------- 0 1.0 2.0 178 178
- 0.39904 1 2 cbr 210 ------- 0 1.0 2.0 178 178
r 0.399128 1 2 cbr 210 ------- 0 1.0 2.0 172 172
+ 0.40072 1 2 cbr 210 ------- 0 1.0 2.0 179 179
- 0.40072 1 2 cbr 210 ------- 0 1.0 2.0 179 179
r 0.400808 1 2 cbr 210 ------- 0 1.0 2.0 173 173
+ 0.4024 1 2 cbr 210 ------- 0 1.0 2.0 180 180
- 0.4024 1 2 cbr 210 ------- 0 1.0 2.0 180 180
r 0.402488 1 2 cbr 210 ------- 0 1.0 2.0 174 174
+ 0.40408 1 2 cbr 210 ------- 0 1.0 2.0 181 181
- 0.40408 1 2 cbr 210 ------- 0 1.0 2.0 181 181
r 0.404168 1 2 cbr 210 ------- 0 1.0 2.0 175 175
+ 0.40576 1 2 cbr 210 ------- 0 1.0 2.0 182 182
- 0.40576 1 2 cbr 210 ------- 0 1.0 2.0 182 182
r 0.405848 1 2 cbr 210 ------- 0 1.0 2.0 176 176
+ 0.40744 1 2 cbr 210 ------- 0 1.0 2.0 183 183
- 0.40744 1 2 cbr 210 ------- 0 1.0 2.0 183 183
r 0.407528 1 2 cbr 210 ------- 0 1.0 2.0 177 177
+ 0.40912 1 2 cbr 210 ------- 0 1.0 2.0 184 184
- 0.40912 1 2 cbr 210 ------- 0 1.0 2.0 184 184
r 0.409208 1 2 cbr 210 ------- 0 1.0 2.0 178 178
+ 0.4108 1 2 cbr 210 ------- 0 1.0 2.0 185 185
- 0.4108 1 2 cbr 210 ------- 0 1.0 2.0 185 185
r 0.410888 1 2 cbr 210 ------- 0 1.0 2.0 179 179
+ 0.41248 1 2 cbr 210 ------- 0 1.0 2.0 186 186
- 0.41248 1 2 cbr 210 ------- 0 1.0 2.0 186 186
r 0.412568 1 2 cbr 210 ------- 0 1.0 2.0 180 180
+ 0.41416 1 2 cbr 210 ------- 0 1.0 2.0 187 187
- 0.41416 1 2 cbr 210 ------- 0 1.0 2.0 187 187
r 0.414248 1 2 cbr 210 ------- 0 1.0 2.0 181 181
+ 0.41584 1 2 cbr 210 ------- 0 1.0 2.0 188 188
- 0.41584 1 2 cbr 210 ------- 0 1.0 2.0 188 188
r 0.415928 1 2 cbr 210 ------- 0 1.0 2.0 182 182
+ 0.41752 1 2 cbr 210 ------- 0 1.0 2.0 189 189
- 0.41752 1 2 cbr 210 ------- 0 1.0 2.0 189 189
r 0.417608 1 2 cbr 210 ------- 0 1.0 2.0 183 183
+ 0.4192 1 2 cbr 210 ------- 0 1.0 2.0 190 190
- 0.4192 1 2 cbr 210 ------- 0 1.0 2.0 190 190
r 0.419288 1 2 cbr 210 ------- 0 1.0 2.0 184 184
+ 0.42088 1 2 cbr 210 ------- 0 1.0 2.0 191 191
- 0.42088 1 2 cbr 210 ------- 0 1.0 2.0 191 191
r 0.420968 1 2 cbr 210 ------- 0 1.0 2.0 185 185
+ 0.42256 1 2 cbr 210 ------- 0 1.0 2.0 192 192
- 0.42256 1 2 cbr 210 ------- 0 1.0 2.0 192 192
r 0.422648 1 2 cbr 210 ------- 0 1.0 2.0 186 186
+ 0.42424 1 2 cbr 210 ------- 0 1.0 2.0 193 193
- 0.42424 1 2 cbr 210 ------- 0 1.0 2.0 193 193
r 0.424328 1 2 cbr 210 ------- 0 1.0 2.0 187 187
+ 0.42592 1 2 cbr 210 ------- 0 1.0 2.0 194 194
- 0.42592 1 2 cbr 210 ------- 0 1.0 2.0 194 194
r 0.426008 1 2 cbr 210 ------- 0 1.0 2.0 188 188
+ 0.4276 1 2 cbr 210 ------- 0 1.0 2.0 195 195
- 0.4276 1 2 cbr 210 ------- 0 1.0 2.0 195 195
r 0.427688 1 2 cbr 210 ------- 0 1.0 2.0 189 189
+ 0.42928 1 2 cbr 210 ------- 0 1.0 2.0 196 196
- 0.42928 1 2 cbr 210 ------- 0 1.0 2.0 196 196
r 0.429368 1 2 cbr 210 ------- 0 1.0 2.0 190 190
+ 0.43096 1 2 cbr 210 ------- 0 1.0 2.0 197 197
- 0.43096 1 2 cbr 210 ------- 0 1.0 2.0 197 197
r 0.431048 1 2 cbr 210 ------- 0 1.0 2.0 191 191
+ 0.43264 1 2 cbr 210 ------- 0 1.0 2.0 198 198
- 0.43264 1 2 cbr 210 ------- 0 1.0 2.0 198 198
r 0.432728 1 2 cbr 210 ------- 0 1.0 2.0 192 192
+ 0.43432 1 2 cbr 210 ------- 0 1.0 2.0 199 199
- 0.43432 1 2 cbr 210 ------- 0 1.0 2.0 199 199
r 0.434408 1 2 cbr 210 ------- 0 1.0 2.0 193 193
+ 0.436 1 2 cbr 210 ------- 0 1.0 2.0 200 200
- 0.436 1 2 cbr 210 ------- 0 1.0 2.0 200 200
r 0.436088 1 2 cbr 210 ------- 0 1.0 2.0 194 194
+ 0.43768 1 2 cbr 210 ------- 0 1.0 2.0 201 201
- 0.43768 1 2 cbr 210 ------- 0 1.0 2.0 201 201
r 0.437768 1 2 cbr 210 ------- 0 1.0 2.0 195 195
+ 0.43936 1 2 cbr 210 ------- 0 1.0 2.0 202 202
- 0.43936 1 2 cbr 210 ------- 0 1.0 2.0 202 202
r 0.439448 1 2 cbr 210 ------- 0 1.0 2.0 196 196
+ 0.44104 1 2 cbr 210 ------- 0 1.0 2.0 203 203
- 0.44104 1 2 cbr 210 ------- 0 1.0 2.0 203 203
r 0.441128 1 2 cbr 210 ------- 0 1.0 2.0 197 197
+ 0.44272 1 2 cbr 210 ------- 0 1.0 2.0 204 204
- 0.44272 1 2 cbr 210 ------- 0 1.0 2.0 204 204
r 0.442808 1 2 cbr 210 ------- 0 1.0 2.0 198 198
+ 0.4444 1 2 cbr 210 ------- 0 1.0 2.0 205 205
- 0.4444 1 2 cbr 210 ------- 0 1.0 2.0 205 205
r 0.444488 1 2 cbr 210 ------- 0 1.0 2.0 199 199
+ 0.44608 1 2 cbr 210 ------- 0 1.0 2.0 206 206
- 0.44608 1 2 cbr 210 ------- 0 1.0 2.0 206 206
r 0.446168 1 2 cbr 210 ------- 0 1.0 2.0 200 200
+ 0.44776 1 2 cbr 210 ------- 0 1.0 2.0 207 207
- 0.44776 1 2 cbr 210 ------- 0 1.0 2.0 207 207
r 0.447848 1 2 cbr 210 ------- 0 1.0 2.0 201 201
+ 0.44944 1 2 cbr 210 ------- 0 1.0 2.0 208 208
- 0.44944 1 2 cbr 210 ------- 0 1.0 2.0 208 208
r 0.449528 1 2 cbr 210 ------- 0 1.0 2.0 202 202
+ 0.45112 1 2 cbr 210 ------- 0 1.0 2.0 209 209
- 0.45112 1 2 cbr 210 ------- 0 1.0 2.0 209 209
r 0.451208 1 2 cbr 210 ------- 0 1.0 2.0 203 203
+ 0.4528 1 2 cbr 210 ------- 0 1.0 2.0 210 210
- 0.4528 1 2 cbr 210 ------- 0 1.0 2.0 210 210
r 0.452888 1 2 cbr 210 ------- 0 1.0 2.0 204 204
+ 0.45448 1 2 cbr 210 ------- 0 1.0 2.0 211 211
- 0.45448 1 2 cbr 210 ------- 0 1.0 2.0 211 211
r 0.454568 1 2 cbr 210 ------- 0 1.0 2.0 205 205
+ 0.45616 1 2 cbr 210 ------- 0 1.0 2.0 212 212
- 0.45616 1 2 cbr 210 ------- 0 1.0 2.0 212 212
r 0.456248 1 2 cbr 210 ------- 0 1.0 2.0 206 206
+ 0.45784 1 2 cbr 210 ------- 0 1.0 2.0 213 213
- 0.45784 1 2 cbr 210 ------- 0 1.0 2.0 213 213
r 0.457928 1 2 cbr 210 ------- 0 1.0 2.0 207 207