+ 0.1 1 2 cbr 210 ------- 0 1.0 2.0 0 0
- 0.1 1 2 cbr 210 ------- 0 1.0 2.0 0 0
+ 0.10084 1 2 cbr 210 ------- 0 1.0 2.0 1 1
- 0.10084 1 2 cbr 210 ------- 0 1.0 2.0 1 1
+ 0.10168 1 2 cbr 210 ------- 0 1.0 2.0 2 2
- 0.10168 1 2 cbr 210 ------- 0 1.0 2.0 2 2
+ 0.10252 1 2 cbr 210 ------- 0 1.0 2.0 3 3
- 0.10252 1 2 cbr 210 ------- 0 1.0 2.0 3 3
+ 0.10336 1 2 cbr 210 ------- 0 1.0 2.0 4 4
- 0.10336 1 2 cbr 210 ------- 0 1.0 2.0 4 4
+ 0.1042 1 2 cbr 210 ------- 0 1.0 2.0 5 5
- 0.1042 1 2 cbr 210 ------- 0 1.0 2.0 5 5
+ 0.10504 1 2 cbr 210 ------- 0 1.0 2.0 6 6
- 0.10504 1 2 cbr 210 ------- 0 1.0 2.0 6 6
+ 0.10588 1 2 cbr 210 ------- 0 1.0 2.0 7 7
- 0.10588 1 2 cbr 210 ------- 0 1.0 2.0 7 7
+ 0.10672 1 2 cbr 210 ------- 0 1.0 2.0 8 8
- 0.10672 1 2 cbr 210 ------- 0 1.0 2.0 8 8
+ 0.10756 1 2 cbr 210 ------- 0 1.0 2.0 9 9
- 0.10756 1 2 cbr 210 ------- 0 1.0 2.0 9 9
+ 0.1084 1 2 cbr 210 ------- 0 1.0 2.0 10 10
- 0.1084 1 2 cbr 210 ------- 0 1.0 2.0 10 10
+ 0.10924 1 2 cbr 210 ------- 0 1.0 2.0 11 11
- 0.10924 1 2 cbr 210 ------- 0 1.0 2.0 11 11
+ 0.11008 1 2 cbr 210 ------- 0 1.0 2.0 12 12
- 0.11008 1 2 cbr 210 ------- 0 1.0 2.0 12 12
r 0.110168 1 2 cbr 210 ------- 0 1.0 2.0 0 0
+ 0.11092 1 2 cbr 210 ------- 0 1.0 2.0 13 13
- 0.11092 1 2 cbr 210 ------- 0 1.0 2.0 13 13
r 0.111008 1 2 cbr 210 ------- 0 1.0 2.0 1 1
+ 0.11176 1 2 cbr 210 ------- 0 1.0 2.0 14 14
- 0.11176 1 2 cbr 210 ------- 0 1.0 2.0 14 14
r 0.111848 1 2 cbr 210 ------- 0 1.0 2.0 2 2
+ 0.1126 1 2 cbr 210 ------- 0 1.0 2.0 15 15
- 0.1126 1 2 cbr 210 ------- 0 1.0 2.0 15 15
r 0.112688 1 2 cbr 210 ------- 0 1.0 2.0 3 3
+ 0.11344 1 2 cbr 210 ------- 0 1.0 2.0 16 16
- 0.11344 1 2 cbr 210 ------- 0 1.0 2.0 16 16
r 0.113528 1 2 cbr 210 ------- 0 1.0 2.0 4 4
+ 0.11428 1 2 cbr 210 ------- 0 1.0 2.0 17 17
- 0.11428 1 2 cbr 210 ------- 0 1.0 2.0 17 17
r 0.114368 1 2 cbr 210 ------- 0 1.0 2.0 5 5
+ 0.11512 1 2 cbr 210 ------- 0 1.0 2.0 18 18
- 0.11512 1 2 cbr 210 ------- 0 1.0 2.0 18 18
r 0.115208 1 2 cbr 210 ------- 0 1.0 2.0 6 6
+ 0.11596 1 2 cbr 210 ------- 0 1.0 2.0 19 19
- 0.11596 1 2 cbr 210 ------- 0 1.0 2.0 19 19
r 0.116048 1 2 cbr 210 ------- 0 1.0 2.0 7 7
+ 0.1168 1 2 cbr 210 ------- 0 1.0 2.0 20 20
- 0.1168 1 2 cbr 210 ------- 0 1.0 2.0 20 20
r 0.116888 1 2 cbr 210 ------- 0 1.0 2.0 8 8
+ 0.11764 1 2 cbr 210 ------- 0 1.0 2.0 21 21
- 0.11764 1 2 cbr 210 ------- 0 1.0 2.0 21 21
r 0.117728 1 2 cbr 210 ------- 0 1.0 2.0 9 9
+ 0.11848 1 2 cbr 210 ------- 0 1.0 2.0 22 22
- 0.11848 1 2 cbr 210 ------- 0 1.0 2.0 22 22
r 0.118568 1 2 cbr 210 ------- 0 1.0 2.0 10 10
+ 0.11932 1 2 cbr 210 ------- 0 1.0 2.0 23 23
- 0.11932 1 2 cbr 210 ------- 0 1.0 2.0 23 23
r 0.119408 1 2 cbr 210 ------- 0 1.0 2.0 11 11
+ 0.12016 1 2 cbr 210 ------- 0 1.0 2.0 24 24
- 0.12016 1 2 cbr 210 ------- 0 1.0 2.0 24 24
r 0.120248 1 2 cbr 210 ------- 0 1.0 2.0 12 12
+ 0.121 1 2 cbr 210 ------- 0 1.0 2.0 25 25
- 0.121 1 2 cbr 210 ------- 0 1.0 2.0 25 25
r 0.121088 1 2 cbr 210 ------- 0 1.0 2.0 13 13
+ 0.12184 1 2 cbr 210 ------- 0 1.0 2.0 26 26
- 0.12184 1 2 cbr 210 ------- 0 1.0 2.0 26 26
r 0.121928 1 2 cbr 210 ------- 0 1.0 2.0 14 14
+ 0.12268 1 2 cbr 210 ------- 0 1.0 2.0 27 27
- 0.12268 1 2 cbr 210 ------- 0 1.0 2.0 27 27
r 0.122768 1 2 cbr 210 ------- 0 1.0 2.0 15 15
+ 0.12352 1 2 cbr 210 ------- 0 1.0 2.0 28 28
- 0.12352 1 2 cbr 210 ------- 0 1.0 2.0 28 28
r 0.123608 1 2 cbr 210 ------- 0 1.0 2.0 16 16
+ 0.12436 1 2 cbr 210 ------- 0 1.0 2.0 29 29
- 0.12436 1 2 cbr 210 ------- 0 1.0 2.0 29 29
r 0.124448 1 2 cbr 210 ------- 0 1.0 2.0 17 17
+ 0.1252 1 2 cbr 210 ------- 0 1.0 2.0 30 30
- 0.1252 1 2 cbr 210 ------- 0 1.0 2.0 30 30
r 0.125288 1 2 cbr 210 ------- 0 1.0 2.0 18 18
+ 0.12604 1 2 cbr 210 ------- 0 1.0 2.0 31 31
- 0.12604 1 2 cbr 210 ------- 0 1.0 2.0 31 31
r 0.126128 1 2 cbr 210 ------- 0 1.0 2.0 19 19
+ 0.12688 1 2 cbr 210 ------- 0 1.0 2.0 32 32
- 0.12688 1 2 cbr 210 ------- 0 1.0 2.0 32 32
r 0.126968 1 2 cbr 210 ------- 0 1.0 2.0 20 20
+ 0.12772 1 2 cbr 210 ------- 0 1.0 2.0 33 33
- 0.12772 1 2 cbr 210 ------- 0 1.0 2.0 33 33
r 0.127808 1 2 cbr 210 ------- 0 1.0 2.0 21 21
+ 0.12856 1 2 cbr 210 ------- 0 1.0 2.0 34 34
- 0.12856 1 2 cbr 210 ------- 0 1.0 2.0 34 34
r 0.128648 1 2 cbr 210 ------- 0 1.0 2.0 22 22
+ 0.1294 1 2 cbr 210 ------- 0 1.0 2.0 35 35
- 0.1294 1 2 cbr 210 ------- 0 1.0 2.0 35 35
r 0.129488 1 2 cbr 210 ------- 0 1.0 2.0 23 23
+ 0.13024 1 2 cbr 210 ------- 0 1.0 2.0 36 36
- 0.13024 1 2 cbr 210 ------- 0 1.0 2.0 36 36
r 0.130328 1 2 cbr 210 ------- 0 1.0 2.0 24 24
+ 0.13108 1 2 cbr 210 ------- 0 1.0 2.0 37 37
- 0.13108 1 2 cbr 210 ------- 0 1.0 2.0 37 37
r 0.131168 1 2 cbr 210 ------- 0 1.0 2.0 25 25
+ 0.13192 1 2 cbr 210 ------- 0 1.0 2.0 38 38
- 0.13192 1 2 cbr 210 ------- 0 1.0 2.0 38 38
r 0.132008 1 2 cbr 210 ------- 0 1.0 2.0 26 26
+ 0.13276 1 2 cbr 210 ------- 0 1.0 2.0 39 39
- 0.13276 1 2 cbr 210 ------- 0 1.0 2.0 39 39
r 0.132848 1 2 cbr 210 ------- 0 1.0 2.0 27 27
+ 0.1336 1 2 cbr 210 ------- 0 1.0 2.0 40 40
- 0.1336 1 2 cbr 210 ------- 0 1.0 2.0 40 40
r 0.133688 1 2 cbr 210 ------- 0 1.0 2.0 28 28
+ 0.13444 1 2 cbr 210 ------- 0 1.0 2.0 41 41
- 0.13444 1 2 cbr 210 ------- 0 1.0 2.0 41 41
r 0.134528 1 2 cbr 210 ------- 0 1.0 2.0 29 29
+ 0.13528 1 2 cbr 210 ------- 0 1.0 2.0 42 42
- 0.13528 1 2 cbr 210 ------- 0 1.0 2.0 42 42
r 0.135368 1 2 cbr 210 ------- 0 1.0 2.0 30 30
+ 0.13612 1 2 cbr 210 ------- 0 1.0 2.0 43 43
- 0.13612 1 2 cbr 210 ------- 0 1.0 2.0 43 43
r 0.136208 1 2 cbr 210 ------- 0 1.0 2.0 31 31
+ 0.13696 1 2 cbr 210 ------- 0 1.0 2.0 44 44
- 0.13696 1 2 cbr 210 ------- 0 1.0 2.0 44 44
r 0.137048 1 2 cbr 210 ------- 0 1.0 2.0 32 32
+ 0.1378 1 2 cbr 210 ------- 0 1.0 2.0 45 45
- 0.1378 1 2 cbr 210 ------- 0 1.0 2.0 45 45
r 0.137888 1 2 cbr 210 ------- 0 1.0 2.0 33 33
+ 0.13864 1 2 cbr 210 ------- 0 1.0 2.0 46 46
- 0.13864 1 2 cbr 210 ------- 0 1.0 2.0 46 46
r 0.138728 1 2 cbr 210 ------- 0 1.0 2.0 34 34
+ 0.13948 1 2 cbr 210 ------- 0 1.0 2.0 47 47
- 0.13948 1 2 cbr 210 ------- 0 1.0 2.0 47 47
r 0.139568 1 2 cbr 210 ------- 0 1.0 2.0 35 35
+ 0.14032 1 2 cbr 210 ------- 0 1.0 2.0 48 48
- 0.14032 1 2 cbr 210 ------- 0 1.0 2.0 48 48
r 0.140408 1 2 cbr 210 ------- 0 1.0 2.0 36 36
+ 0.14116 1 2 cbr 210 ------- 0 1.0 2.0 49 49
- 0.14116 1 2 cbr 210 ------- 0 1.0 2.0 49 49
r 0.141248 1 2 cbr 210 ------- 0 1.0 2.0 37 37
+ 0.142 1 2 cbr 210 ------- 0 1.0 2.0 50 50
- 0.142 1 2 cbr 210 ------- 0 1.0 2.0 50 50
r 0.142088 1 2 cbr 210 ------- 0 1.0 2.0 38 38
+ 0.14284 1 2 cbr 210 ------- 0 1.0 2.0 51 51
- 0.14284 1 2 cbr 210 ------- 0 1.0 2.0 51 51
r 0.142928 1 2 cbr 210 ------- 0 1.0 2.0 39 39
+ 0.14368 1 2 cbr 210 ------- 0 1.0 2.0 52 52
- 0.14368 1 2 cbr 210 ------- 0 1.0 2.0 52 52
r 0.143768 1 2 cbr 210 ------- 0 1.0 2.0 40 40
+ 0.14452 1 2 cbr 210 ------- 0 1.0 2.0 53 53
- 0.14452 1 2 cbr 210 ------- 0 1.0 2.0 53 53
r 0.144608 1 2 cbr 210 ------- 0 1.0 2.0 41 41
+ 0.14536 1 2 cbr 210 ------- 0 1.0 2.0 54 54
- 0.14536 1 2 cbr 210 ------- 0 1.0 2.0 54 54
r 0.145448 1 2 cbr 210 ------- 0 1.0 2.0 42 42
+ 0.1462 1 2 cbr 210 ------- 0 1.0 2.0 55 55
- 0.1462 1 2 cbr 210 ------- 0 1.0 2.0 55 55
r 0.146288 1 2 cbr 210 ------- 0 1.0 2.0 43 43
+ 0.14704 1 2 cbr 210 ------- 0 1.0 2.0 56 56
- 0.14704 1 2 cbr 210 ------- 0 1.0 2.0 56 56
r 0.147128 1 2 cbr 210 ------- 0 1.0 2.0 44 44
+ 0.14788 1 2 cbr 210 ------- 0 1.0 2.0 57 57
- 0.14788 1 2 cbr 210 ------- 0 1.0 2.0 57 57
r 0.147968 1 2 cbr 210 ------- 0 1.0 2.0 45 45
+ 0.14872 1 2 cbr 210 ------- 0 1.0 2.0 58 58
- 0.14872 1 2 cbr 210 ------- 0 1.0 2.0 58 58
r 0.148808 1 2 cbr 210 ------- 0 1.0 2.0 46 46
+ 0.14956 1 2 cbr 210 ------- 0 1.0 2.0 59 59
- 0.14956 1 2 cbr 210 ------- 0 1.0 2.0 59 59
r 0.149648 1 2 cbr 210 ------- 0 1.0 2.0 47 47
+ 0.1504 1 2 cbr 210 ------- 0 1.0 2.0 60 60
- 0.1504 1 2 cbr 210 ------- 0 1.0 2.0 60 60
r 0.150488 1 2 cbr 210 ------- 0 1.0 2.0 48 48
+ 0.15124 1 2 cbr 210 ------- 0 1.0 2.0 61 61
- 0.15124 1 2 cbr 210 ------- 0 1.0 2.0 61 61
r 0.151328 1 2 cbr 210 ------- 0 1.0 2.0 49 49
+ 0.15208 1 2 cbr 210 ------- 0 1.0 2.0 62 62
- 0.15208 1 2 cbr 210 ------- 0 1.0 2.0 62 62
r 0.152168 1 2 cbr 210 ------- 0 1.0 2.0 50 50
+ 0.15292 1 2 cbr 210 ------- 0 1.0 2.0 63 63
- 0.15292 1 2 cbr 210 ------- 0 1.0 2.0 63 63
r 0.153008 1 2 cbr 210 ------- 0 1.0 2.0 51 51
+ 0.15376 1 2 cbr 210 ------- 0 1.0 2.0 64 64
- 0.15376 1 2 cbr 210 ------- 0 1.0 2.0 64 64
r 0.153848 1 2 cbr 210 ------- 0 1.0 2.0 52 52
+ 0.1546 1 2 cbr 210 ------- 0 1.0 2.0 65 65
- 0.1546 1 2 cbr 210 ------- 0 1.0 2.0 65 65
r 0.154688 1 2 cbr 210 ------- 0 1.0 2.0 53 53
+ 0.15544 1 2 cbr 210 ------- 0 1.0 2.0 66 66
- 0.15544 1 2 cbr 210 ------- 0 1.0 2.0 66 66
r 0.155528 1 2 cbr 210 ------- 0 1.0 2.0 54 54
+ 0.15628 1 2 cbr 210 ------- 0 1.0 2.0 67 67
- 0.15628 1 2 cbr 210 ------- 0 1.0 2.0 67 67
r 0.156368 1 2 cbr 210 ------- 0 1.0 2.0 55 55
+ 0.15712 1 2 cbr 210 ------- 0 1.0 2.0 68 68
- 0.15712 1 2 cbr 210 ------- 0 1.0 2.0 68 68
r 0.157208 1 2 cbr 210 ------- 0 1.0 2.0 56 56
+ 0.15796 1 2 cbr 210 ------- 0 1.0 2.0 69 69
- 0.15796 1 2 cbr 210 ------- 0 1.0 2.0 69 69
r 0.158048 1 2 cbr 210 ------- 0 1.0 2.0 57 57
+ 0.1588 1 2 cbr 210 ------- 0 1.0 2.0 70 70
- 0.1588 1 2 cbr 210 ------- 0 1.0 2.0 70 70
r 0.158888 1 2 cbr 210 ------- 0 1.0 2.0 58 58
+ 0.15964 1 2 cbr 210 ------- 0 1.0 2.0 71 71
- 0.15964 1 2 cbr 210 ------- 0 1.0 2.0 71 71
r 0.159728 1 2 cbr 210 ------- 0 1.0 2.0 59 59
+ 0.16048 1 2 cbr 210 ------- 0 1.0 2.0 72 72
- 0.16048 1 2 cbr 210 ------- 0 1.0 2.0 72 72
r 0.160568 1 2 cbr 210 ------- 0 1.0 2.0 60 60
+ 0.16132 1 2 cbr 210 ------- 0 1.0 2.0 73 73
- 0.16132 1 2 cbr 210 ------- 0 1.0 2.0 73 73
r 0.161408 1 2 cbr 210 ------- 0 1.0 2.0 61 61
+ 0.16216 1 2 cbr 210 ------- 0 1.0 2.0 74 74
- 0.16216 1 2 cbr 210 ------- 0 1.0 2.0 74 74
r 0.162248 1 2 cbr 210 ------- 0 1.0 2.0 62 62
+ 0.163 1 2 cbr 210 ------- 0 1.0 2.0 75 75
- 0.163 1 2 cbr 210 ------- 0 1.0 2.0 75 75
r 0.163088 1 2 cbr 210 ------- 0 1.0 2.0 63 63
+ 0.16384 1 2 cbr 210 ------- 0 1.0 2.0 76 76
- 0.16384 1 2 cbr 210 ------- 0 1.0 2.0 76 76
r 0.163928 1 2 cbr 210 ------- 0 1.0 2.0 64 64
+ 0.16468 1 2 cbr 210 ------- 0 1.0 2.0 77 77
- 0.16468 1 2 cbr 210 ------- 0 1.0 2.0 77 77
r 0.164768 1 2 cbr 210 ------- 0 1.0 2.0 65 65
+ 0.16552 1 2 cbr 210 ------- 0 1.0 2.0 78 78
- 0.16552 1 2 cbr 210 ------- 0 1.0 2.0 78 78
r 0.165608 1 2 cbr 210 ------- 0 1.0 2.0 66 66
+ 0.16636 1 2 cbr 210 ------- 0 1.0 2.0 79 79
- 0.16636 1 2 cbr 210 ------- 0 1.0 2.0 79 79
r 0.166448 1 2 cbr 210 ------- 0 1.0 2.0 67 67
+ 0.1672 1 2 cbr 210 ------- 0 1.0 2.0 80 80
- 0.1672 1 2 cbr 210 ------- 0 1.0 2.0 80 80
r 0.167288 1 2 cbr 210 ------- 0 1.0 2.0 68 68
+ 0.16804 1 2 cbr 210 ------- 0 1.0 2.0 81 81
- 0.16804 1 2 cbr 210 ------- 0 1.0 2.0 81 81
r 0.168128 1 2 cbr 210 ------- 0 1.0 2.0 69 69
+ 0.16888 1 2 cbr 210 ------- 0 1.0 2.0 82 82
- 0.16888 1 2 cbr 210 ------- 0 1.0 2.0 82 82
r 0.168968 1 2 cbr 210 ------- 0 1.0 2.0 70 70
+ 0.16972 1 2 cbr 210 ------- 0 1.0 2.0 83 83
- 0.16972 1 2 cbr 210 ------- 0 1.0 2.0 83 83
r 0.169808 1 2 cbr 210 ------- 0 1.0 2.0 71 71
+ 0.17056 1 2 cbr 210 ------- 0 1.0 2.0 84 84
- 0.17056 1 2 cbr 210 ------- 0 1.0 2.0 84 84
r 0.170648 1 2 cbr 210 ------- 0 1.0 2.0 72 72
+ 0.1714 1 2 cbr 210 ------- 0 1.0 2.0 85 85
- 0.1714 1 2 cbr 210 ------- 0 1.0 2.0 85 85
r 0.171488 1 2 cbr 210 ------- 0 1.0 2.0 73 73
+ 0.17224 1 2 cbr 210 ------- 0 1.0 2.0 86 86
- 0.17224 1 2 cbr 210 ------- 0 1.0 2.0 86 86
r 0.172328 1 2 cbr 210 ------- 0 1.0 2.0 74 74
+ 0.17308 1 2 cbr 210 ------- 0 1.0 2.0 87 87
- 0.17308 1 2 cbr 210 ------- 0 1.0 2.0 87 87
r 0.173168 1 2 cbr 210 ------- 0 1.0 2.0 75 75
+ 0.17392 1 2 cbr 210 ------- 0 1.0 2.0 88 88
- 0.17392 1 2 cbr 210 ------- 0 1.0 2.0 88 88
r 0.174008 1 2 cbr 210 ------- 0 1.0 2.0 76 76
+ 0.17476 1 2 cbr 210 ------- 0 1.0 2.0 89 89
- 0.17476 1 2 cbr 210 ------- 0 1.0 2.0 89 89
r 0.174848 1 2 cbr 210 ------- 0 1.0 2.0 77 77
+ 0.1756 1 2 cbr 210 ------- 0 1.0 2.0 90 90
- 0.1756 1 2 cbr 210 ------- 0 1.0 2.0 90 90
r 0.175688 1 2 cbr 210 ------- 0 1.0 2.0 78 78
+ 0.17644 1 2 cbr 210 ------- 0 1.0 2.0 91 91
- 0.17644 1 2 cbr 210 ------- 0 1.0 2.0 91 91
r 0.176528 1 2 cbr 210 ------- 0 1.0 2.0 79 79
+ 0.17728 1 2 cbr 210 ------- 0 1.0 2.0 92 92
- 0.17728 1 2 cbr 210 ------- 0 1.0 2.0 92 92
r 0.177368 1 2 cbr 210 ------- 0 1.0 2.0 80 80
+ 0.17812 1 2 cbr 210 ------- 0 1.0 2.0 93 93
- 0.17812 1 2 cbr 210 ------- 0 1.0 2.0 93 93
r 0.178208 1 2 cbr 210 ------- 0 1.0 2.0 81 81
+ 0.17896 1 2 cbr 210 ------- 0 1.0 2.0 94 94
- 0.17896 1 2 cbr 210 ------- 0 1.0 2.0 94 94
r 0.179048 1 2 cbr 210 ------- 0 1.0 2.0 82 82
+ 0.1798 1 2 cbr 210 ------- 0 1.0 2.0 95 95
- 0.1798 1 2 cbr 210 ------- 0 1.0 2.0 95 95
r 0.179888 1 2 cbr 210 ------- 0 1.0 2.0 83 83
+ 0.18064 1 2 cbr 210 ------- 0 1.0 2.0 96 96
- 0.18064 1 2 cbr 210 ------- 0 1.0 2.0 96 96
r 0.180728 1 2 cbr 210 ------- 0 1.0 2.0 84 84
+ 0.18148 1 2 cbr 210 ------- 0 1.0 2.0 97 97
- 0.18148 1 2 cbr 210 ------- 0 1.0 2.0 97 97
r 0.181568 1 2 cbr 210 ------- 0 1.0 2.0 85 85
+ 0.18232 1 2 cbr 210 ------- 0 1.0 2.0 98 98
- 0.18232 1 2 cbr 210 ------- 0 1.0 2.0 98 98
r 0.182408 1 2 cbr 210 ------- 0 1.0 2.0 86 86
+ 0.18316 1 2 cbr 210 ------- 0 1.0 2.0 99 99
- 0.18316 1 2 cbr 210 ------- 0 1.0 2.0 99 99
r 0.183248 1 2 cbr 210 ------- 0 1.0 2.0 87 87
+ 0.184 1 2 cbr 210 ------- 0 1.0 2.0 100 100
- 0.184 1 2 cbr 210 ------- 0 1.0 2.0 100 100
r 0.184088 1 2 cbr 210 ------- 0 1.0 2.0 88 88
+ 0.18484 1 2 cbr 210 ------- 0 1.0 2.0 101 101
- 0.18484 1 2 cbr 210 ------- 0 1.0 2.0 101 101
r 0.184928 1 2 cbr 210 ------- 0 1.0 2.0 89 89
+ 0.18568 1 2 cbr 210 ------- 0 1.0 2.0 102 102
- 0.18568 1 2 cbr 210 ------- 0 1.0 2.0 102 102
r 0.185768 1 2 cbr 210 ------- 0 1.0 2.0 90 90
+ 0.18652 1 2 cbr 210 ------- 0 1.0 2.0 103 103
- 0.18652 1 2 cbr 210 ------- 0 1.0 2.0 103 103
r 0.186608 1 2 cbr 210 ------- 0 1.0 2.0 91 91
+ 0.18736 1 2 cbr 210 ------- 0 1.0 2.0 104 104
- 0.18736 1 2 cbr 210 ------- 0 1.0 2.0 104 104
r 0.187448 1 2 cbr 210 ------- 0 1.0 2.0 92 92
+ 0.1882 1 2 cbr 210 ------- 0 1.0 2.0 105 105
- 0.1882 1 2 cbr 210 ------- 0 1.0 2.0 105 105
r 0.188288 1 2 cbr 210 ------- 0 1.0 2.0 93 93
+ 0.18904 1 2 cbr 210 ------- 0 1.0 2.0 106 106
- 0.18904 1 2 cbr 210 ------- 0 1.0 2.0 106 106
r 0.189128 1 2 cbr 210 ------- 0 1.0 2.0 94 94
+ 0.18988 1 2 cbr 210 ------- 0 1.0 2.0 107 107
- 0.18988 1 2 cbr 210 ------- 0 1.0 2.0 107 107
r 0.189968 1 2 cbr 210 ------- 0 1.0 2.0 95 95
+ 0.19072 1 2 cbr 210 ------- 0 1.0 2.0 108 108
- 0.19072 1 2 cbr 210 ------- 0 1.0 2.0 108 108
r 0.190808 1 2 cbr 210 ------- 0 1.0 2.0 96 96
+ 0.19156 1 2 cbr 210 ------- 0 1.0 2.0 109 109
- 0.19156 1 2 cbr 210 ------- 0 1.0 2.0 109 109
r 0.191648 1 2 cbr 210 ------- 0 1.0 2.0 97 97
+ 0.1924 1 2 cbr 210 ------- 0 1.0 2.0 110 110
- 0.1924 1 2 cbr 210 ------- 0 1.0 2.0 110 110
r 0.192488 1 2 cbr 210 ------- 0 1.0 2.0 98 98
+ 0.19324 1 2 cbr 210 ------- 0 1.0 2.0 111 111
- 0.19324 1 2 cbr 210 ------- 0 1.0 2.0 111 111
r 0.193328 1 2 cbr 210 ------- 0 1.0 2.0 99 99
+ 0.19408 1 2 cbr 210 ------- 0 1.0 2.0 112 112
- 0.19408 1 2 cbr 210 ------- 0 1.0 2.0 112 112
r 0.194168 1 2 cbr 210 ------- 0 1.0 2.0 100 100
+ 0.19492 1 2 cbr 210 ------- 0 1.0 2.0 113 113
- 0.19492 1 2 cbr 210 ------- 0 1.0 2.0 113 113
r 0.195008 1 2 cbr 210 ------- 0 1.0 2.0 101 101
+ 0.19576 1 2 cbr 210 ------- 0 1.0 2.0 114 114
- 0.19576 1 2 cbr 210 ------- 0 1.0 2.0 114 114
r 0.195848 1 2 cbr 210 ------- 0 1.0 2.0 102 102
+ 0.1966 1 2 cbr 210 ------- 0 1.0 2.0 115 115
- 0.1966 1 2 cbr 210 ------- 0 1.0 2.0 115 115
r 0.196688 1 2 cbr 210 ------- 0 1.0 2.0 103 103
+ 0.19744 1 2 cbr 210 ------- 0 1.0 2.0 116 116
- 0.19744 1 2 cbr 210 ------- 0 1.0 2.0 116 116
r 0.197528 1 2 cbr 210 ------- 0 1.0 2.0 104 104
+ 0.19828 1 2 cbr 210 ------- 0 1.0 2.0 117 117
- 0.19828 1 2 cbr 210 ------- 0 1.0 2.0 117 117
r 0.198368 1 2 cbr 210 ------- 0 1.0 2.0 105 105
+ 0.19912 1 2 cbr 210 ------- 0 1.0 2.0 118 118
- 0.19912 1 2 cbr 210 ------- 0 1.0 2.0 118 118
r 0.199208 1 2 cbr 210 ------- 0 1.0 2.0 106 106
+ 0.19996 1 2 cbr 210 ------- 0 1.0 2.0 119 119
- 0.19996 1 2 cbr 210 ------- 0 1.0 2.0 119 119
r 0.200048 1 2 cbr 210 ------- 0 1.0 2.0 107 107
+ 0.2008 1 2 cbr 210 ------- 0 1.0 2.0 120 120
- 0.2008 1 2 cbr 210 ------- 0 1.0 2.0 120 120
r 0.200888 1 2 cbr 210 ------- 0 1.0 2.0 108 108
+ 0.20164 1 2 cbr 210 ------- 0 1.0 2.0 121 121
- 0.20164 1 2 cbr 210 ------- 0 1.0 2.0 121 121
r 0.201728 1 2 cbr 210 ------- 0 1.0 2.0 109 109
+ 0.20248 1 2 cbr 210 ------- 0 1.0 2.0 122 122
- 0.20248 1 2 cbr 210 ------- 0 1.0 2.0 122 122
r 0.202568 1 2 cbr 210 ------- 0 1.0 2.0 110 110
+ 0.20332 1 2 cbr 210 ------- 0 1.0 2.0 123 123
- 0.20332 1 2 cbr 210 ------- 0 1.0 2.0 123 123
r 0.203408 1 2 cbr 210 ------- 0 1.0 2.0 111 111
+ 0.20416 1 2 cbr 210 ------- 0 1.0 2.0 124 124
- 0.20416 1 2 cbr 210 ------- 0 1.0 2.0 124 124
r 0.204248 1 2 cbr 210 ------- 0 1.0 2.0 112 112
+ 0.205 1 2 cbr 210 ------- 0 1.0 2.0 125 125
- 0.205 1 2 cbr 210 ------- 0 1.0 2.0 125 125
r 0.205088 1 2 cbr 210 ------- 0 1.0 2.0 113 113
+ 0.20584 1 2 cbr 210 ------- 0 1.0 2.0 126 126
- 0.20584 1 2 cbr 210 ------- 0 1.0 2.0 126 126
r 0.205928 1 2 cbr 210 ------- 0 1.0 2.0 114 114
+ 0.20668 1 2 cbr 210 ------- 0 1.0 2.0 127 127
- 0.20668 1 2 cbr 210 ------- 0 1.0 2.0 127 127
r 0.206768 1 2 cbr 210 ------- 0 1.0 2.0 115 115
+ 0.20752 1 2 cbr 210 ------- 0 1.0 2.0 128 128
- 0.20752 1 2 cbr 210 ------- 0 1.0 2.0 128 128
r 0.207608 1 2 cbr 210 ------- 0 1.0 2.0 116 116
+ 0.20836 1 2 cbr 210 ------- 0 1.0 2.0 129 129
- 0.20836 1 2 cbr 210 ------- 0 1.0 2.0 129 129
r 0.208448 1 2 cbr 210 ------- 0 1.0 2.0 117 117
+ 0.2092 1 2 cbr 210 ------- 0 1.0 2.0 130 130
- 0.2092 1 2 cbr 210 ------- 0 1.0 2.0 130 130
r 0.209288 1 2 cbr 210 ------- 0 1.0 2.0 118 118
+ 0.21004 1 2 cbr 210 ------- 0 1.0 2.0 131 131
- 0.21004 1 2 cbr 210 ------- 0 1.0 2.0 131 131
r 0.210128 1 2 cbr 210 ------- 0 1.0 2.0 119 119
+ 0.21088 1 2 cbr 210 ------- 0 1.0 2.0 132 132
- 0.21088 1 2 cbr 210 ------- 0 1.0 2.0 132 132
r 0.210968 1 2 cbr 210 ------- 0 1.0 2.0 120 120
+ 0.21172 1 2 cbr 210 ------- 0 1.0 2.0 133 133
- 0.21172 1 2 cbr 210 ------- 0 1.0 2.0 133 133
r 0.211808 1 2 cbr 210 ------- 0 1.0 2.0 121 121
+ 0.21256 1 2 cbr 210 ------- 0 1.0 2.0 134 134
- 0.21256 1 2 cbr 210 ------- 0 1.0 2.0 134 134
r 0.212648 1 2 cbr 210 ------- 0 1.0 2.0 122 122
+ 0.2134 1 2 cbr 210 ------- 0 1.0 2.0 135 135
- 0.2134 1 2 cbr 210 ------- 0 1.0 2.0 135 135
r 0.213488 1 2 cbr 210 ------- 0 1.0 2.0 123 123
+ 0.21424 1 2 cbr 210 ------- 0 1.0 2.0 136 136
- 0.21424 1 2 cbr 210 ------- 0 1.0 2.0 136 136
r 0.214328 1 2 cbr 210 ------- 0 1.0 2.0 124 124
+ 0.21508 1 2 cbr 210 ------- 0 1.0 2.0 137 137
- 0.21508 1 2 cbr 210 ------- 0 1.0 2.0 137 137
r 0.215168 1 2 cbr 210 ------- 0 1.0 2.0 125 125
+ 0.21592 1 2 cbr 210 ------- 0 1.0 2.0 138 138
- 0.21592 1 2 cbr 210 ------- 0 1.0 2.0 138 138
r 0.216008 1 2 cbr 210 ------- 0 1.0 2.0 126 126
+ 0.21676 1 2 cbr 210 ------- 0 1.0 2.0 139 139
- 0.21676 1 2 cbr 210 ------- 0 1.0 2.0 139 139
r 0.216848 1 2 cbr 210 ------- 0 1.0 2.0 127 127
+ 0.2176 1 2 cbr 210 ------- 0 1.0 2.0 140 140
- 0.2176 1 2 cbr 210 ------- 0 1.0 2.0 140 140
r 0.217688 1 2 cbr 210 ------- 0 1.0 2.0 128 128
+ 0.21844 1 2 cbr 210 ------- 0 1.0 2.0 141 141
- 0.21844 1 2 cbr 210 ------- 0 1.0 2.0 141 141
r 0.218528 1 2 cbr 210 ------- 0 1.0 2.0 129 129
+ 0.21928 1 2 cbr 210 ------- 0 1.0 2.0 142 142
- 0.21928 1 2 cbr 210 ------- 0 1.0 2.0 142 142
r 0.219368 1 2 cbr 210 ------- 0 1.0 2.0 130 130
+ 0.22012 1 2 cbr 210 ------- 0 1.0 2.0 143 143
- 0.22012 1 2 cbr 210 ------- 0 1.0 2.0 143 143
r 0.220208 1 2 cbr 210 ------- 0 1.0 2.0 131 131
+ 0.22096 1 2 cbr 210 ------- 0 1.0 2.0 144 144
- 0.22096 1 2 cbr 210 ------- 0 1.0 2.0 144 144
r 0.221048 1 2 cbr 210 ------- 0 1.0 2.0 132 132
+ 0.2218 1 2 cbr 210 ------- 0 1.0 2.0 145 145
- 0.2218 1 2 cbr 210 ------- 0 1.0 2.0 145 145
r 0.221888 1 2 cbr 210 ------- 0 1.0 2.0 133 133
+ 0.22264 1 2 cbr 210 ------- 0 1.0 2.0 146 146
- 0.22264 1 2 cbr 210 ------- 0 1.0 2.0 146 146
r 0.222728 1 2 cbr 210 ------- 0 1.0 2.0 134 134
+ 0.22348 1 2 cbr 210 ------- 0 1.0 2.0 147 147
- 0.22348 1 2 cbr 210 ------- 0 1.0 2.0 147 147
r 0.223568 1 2 cbr 210 ------- 0 1.0 2.0 135 135
+ 0.22432 1 2 cbr 210 ------- 0 1.0 2.0 148 148
- 0.22432 1 2 cbr 210 ------- 0 1.0 2.0 148 148
r 0.224408 1 2 cbr 210 ------- 0 1.0 2.0 136 136
+ 0.22516 1 2 cbr 210 ------- 0 1.0 2.0 149 149
- 0.22516 1 2 cbr 210 ------- 0 1.0 2.0 149 149
r 0.225248 1 2 cbr 210 ------- 0 1.0 2.0 137 137
+ 0.226 1 2 cbr 210 ------- 0 1.0 2.0 150 150
- 0.226 1 2 cbr 210 ------- 0 1.0 2.0 150 150
r 0.226088 1 2 cbr 210 ------- 0 1.0 2.0 138 138
+ 0.22684 1 2 cbr 210 ------- 0 1.0 2.0 151 151
- 0.22684 1 2 cbr 210 ------- 0 1.0 2.0 151 151
r 0.226928 1 2 cbr 210 ------- 0 1.0 2.0 139 139
+ 0.22768 1 2 cbr 210 ------- 0 1.0 2.0 152 152
- 0.22768 1 2 cbr 210 ------- 0 1.0 2.0 152 152
r 0.227768 1 2 cbr 210 ------- 0 1.0 2.0 140 140
+ 0.22852 1 2 cbr 210 ------- 0 1.0 2.0 153 153
- 0.22852 1 2 cbr 210 ------- 0 1.0 2.0 153 153
r 0.228608 1 2 cbr 210 ------- 0 1.0 2.0 141 141
+ 0.22936 1 2 cbr 210 ------- 0 1.0 2.0 154 154
- 0.22936 1 2 cbr 210 ------- 0 1.0 2.0 154 154
r 0.229448 1 2 cbr 210 ------- 0 1.0 2.0 142 142
+ 0.2302 1 2 cbr 210 ------- 0 1.0 2.0 155 155
- 0.2302 1 2 cbr 210 ------- 0 1.0 2.0 155 155
r 0.230288 1 2 cbr 210 ------- 0 1.0 2.0 143 143
+ 0.23104 1 2 cbr 210 ------- 0 1.0 2.0 156 156
- 0.23104 1 2 cbr 210 ------- 0 1.0 2.0 156 156
r 0.231128 1 2 cbr 210 ------- 0 1.0 2.0 144 144
+ 0.23188 1 2 cbr 210 ------- 0 1.0 2.0 157 157
- 0.23188 1 2 cbr 210 ------- 0 1.0 2.0 157 157
r 0.231968 1 2 cbr 210 ------- 0 1.0 2.0 145 145
+ 0.23272 1 2 cbr 210 ------- 0 1.0 2.0 158 158
- 0.23272 1 2 cbr 210 ------- 0 1.0 2.0 158 158
r 0.232808 1 2 cbr 210 ------- 0 1.0 2.0 146 146
+ 0.23356 1 2 cbr 210 ------- 0 1.0 2.0 159 159
- 0.23356 1 2 cbr 210 ------- 0 1.0 2.0 159 159
r 0.233648 1 2 cbr 210 ------- 0 1.0 2.0 147 147
+ 0.2344 1 2 cbr 210 ------- 0 1.0 2.0 160 160
- 0.2344 1 2 cbr 210 ------- 0 1.0 2.0 160 160
r 0.234488 1 2 cbr 210 ------- 0 1.0 2.0 148 148
+ 0.23524 1 2 cbr 210 ------- 0 1.0 2.0 161 161
- 0.23524 1 2 cbr 210 ------- 0 1.0 2.0 161 161
r 0.235328 1 2 cbr 210 ------- 0 1.0 2.0 149 149
+ 0.23608 1 2 cbr 210 ------- 0 1.0 2.0 162 162
- 0.23608 1 2 cbr 210 ------- 0 1.0 2.0 162 162
r 0.236168 1 2 cbr 210 ------- 0 1.0 2.0 150 150
+ 0.23692 1 2 cbr 210 ------- 0 1.0 2.0 163 163
- 0.23692 1 2 cbr 210 ------- 0 1.0 2.0 163 163
r 0.237008 1 2 cbr 210 ------- 0 1.0 2.0 151 151
+ 0.23776 1 2 cbr 210 ------- 0 1.0 2.0 164 164
- 0.23776 1 2 cbr 210 ------- 0 1.0 2.0 164 164
r 0.237848 1 2 cbr 210 ------- 0 1.0 2.0 152 152
+ 0.2386 1 2 cbr 210 ------- 0 1.0 2.0 165 165
- 0.2386 1 2 cbr 210 ------- 0 1.0 2.0 165 165
r 0.238688 1 2 cbr 210 ------- 0 1.0 2.0 153 153
+ 0.23944 1 2 cbr 210 ------- 0 1.0 2.0 166 166
- 0.23944 1 2 cbr 210 ------- 0 1.0 2.0 166 166
r 0.239528 1 2 cbr 210 ------- 0 1.0 2.0 154 154
+ 0.24028 1 2 cbr 210 ------- 0 1.0 2.0 167 167
- 0.24028 1 2 cbr 210 ------- 0 1.0 2.0 167 167
r 0.240368 1 2 cbr 210 ------- 0 1.0 2.0 155 155
+ 0.24112 1 2 cbr 210 ------- 0 1.0 2.0 168 168
- 0.24112 1 2 cbr 210 ------- 0 1.0 2.0 168 168
r 0.241208 1 2 cbr 210 ------- 0 1.0 2.0 156 156
+ 0.24196 1 2 cbr 210 ------- 0 1.0 2.0 169 169
- 0.24196 1 2 cbr 210 ------- 0 1.0 2.0 169 169
r 0.242048 1 2 cbr 210 ------- 0 1.0 2.0 157 157
+ 0.2428 1 2 cbr 210 ------- 0 1.0 2.0 170 170
- 0.2428 1 2 cbr 210 ------- 0 1.0 2.0 170 170
r 0.242888 1 2 cbr 210 ------- 0 1.0 2.0 158 158
+ 0.24364 1 2 cbr 210 ------- 0 1.0 2.0 171 171
- 0.24364 1 2 cbr 210 ------- 0 1.0 2.0 171 171
r 0.243728 1 2 cbr 210 ------- 0 1.0 2.0 159 159
+ 0.24448 1 2 cbr 210 ------- 0 1.0 2.0 172 172
- 0.24448 1 2 cbr 210 ------- 0 1.0 2.0 172 172
r 0.244568 1 2 cbr 210 ------- 0 1.0 2.0 160 160
+ 0.24532 1 2 cbr 210 ------- 0 1.0 2.0 173 173
- 0.24532 1 2 cbr 210 ------- 0 1.0 2.0 173 173
r 0.245408 1 2 cbr 210 ------- 0 1.0 2.0 161 161
+ 0.24616 1 2 cbr 210 ------- 0 1.0 2.0 174 174
- 0.24616 1 2 cbr 210 ------- 0 1.0 2.0 174 174
r 0.246248 1 2 cbr 210 ------- 0 1.0 2.0 162 162
+ 0.247 1 2 cbr 210 ------- 0 1.0 2.0 175 175
- 0.247 1 2 cbr 210 ------- 0 1.0 2.0 175 175
r 0.247088 1 2 cbr 210 ------- 0 1.0 2.0 163 163
+ 0.24784 1 2 cbr 210 ------- 0 1.0 2.0 176 176
- 0.24784 1 2 cbr 210 ------- 0 1.0 2.0 176 176
r 0.247928 1 2 cbr 210 ------- 0 1.0 2.0 164 164
+ 0.24868 1 2 cbr 210 ------- 0 1.0 2.0 177 177
- 0.24868 1 2 cbr 210 ------- 0 1.0 2.0 177 177
r 0.248768 1 2 cbr 210 ------- 0 1.0 2.0 165 165
+ 0.24952 1 2 cbr 210 ------- 0 1.0 2.0 178 178
- 0.24952 1 2 cbr 210 ------- 0 1.0 2.0 178 178
r 0.249608 1 2 cbr 210 ------- 0 1.0 2.0 166 166
+ 0.25036 1 2 cbr 210 ------- 0 1.0 2.0 179 179
- 0.25036 1 2 cbr 210 ------- 0 1.0 2.0 179 179
r 0.250448 1 2 cbr 210 ------- 0 1.0 2.0 167 167
+ 0.2512 1 2 cbr 210 ------- 0 1.0 2.0 180 180
- 0.2512 1 2 cbr 210 ------- 0 1.0 2.0 180 180
r 0.251288 1 2 cbr 210 ------- 0 1.0 2.0 168 168
+ 0.25204 1 2 cbr 210 ------- 0 1.0 2.0 181 181
- 0.25204 1 2 cbr 210 ------- 0 1.0 2.0 181 181
r 0.252128 1 2 cbr 210 ------- 0 1.0 2.0 169 169
+ 0.25288 1 2 cbr 210 ------- 0 1.0 2.0 182 182
- 0.25288 1 2 cbr 210 ------- 0 1.0 2.0 182 182
r 0.252968 1 2 cbr 210 ------- 0 1.0 2.0 170 170
+ 0.25372 1 2 cbr 210 ------- 0 1.0 2.0 183 183
- 0.25372 1 2 cbr 210 ------- 0 1.0 2.0 183 183
r 0.253808 1 2 cbr 210 ------- 0 1.0 2.0 171 171
+ 0.25456 1 2 cbr 210 ------- 0 1.0 2.0 184 184
- 0.25456 1 2 cbr 210 ------- 0 1.0 2.0 184 184
r 0.254648 1 2 cbr 210 ------- 0 1.0 2.0 172 172
+ 0.2554 1 2 cbr 210 ------- 0 1.0 2.0 185 185
- 0.2554 1 2 cbr 210 ------- 0 1.0 2.0 185 185
r 0.255488 1 2 cbr 210 ------- 0 1.0 2.0 173 173
+ 0.25624 1 2 cbr 210 ------- 0 1.0 2.0 186 186
- 0.25624 1 2 cbr 210 ------- 0 1.0 2.0 186 186
r 0.256328 1 2 cbr 210 ------- 0 1.0 2.0 174 174
+ 0.25708 1 2 cbr 210 ------- 0 1.0 2.0 187 187
- 0.25708 1 2 cbr 210 ------- 0 1.0 2.0 187 187
r 0.257168 1 2 cbr 210 ------- 0 1.0 2.0 175 175
+ 0.25792 1 2 cbr 210 ------- 0 1.0 2.0 188 188
- 0.25792 1 2 cbr 210 ------- 0 1.0 2.0 188 188
r 0.258008 1 2 cbr 210 ------- 0 1.0 2.0 176 176
+ 0.25876 1 2 cbr 210 ------- 0 1.0 2.0 189 189
- 0.25876 1 2 cbr 210 ------- 0 1.0 2.0 189 189
r 0.258848 1 2 cbr 210 ------- 0 1.0 2.0 177 177
+ 0.2596 1 2 cbr 210 ------- 0 1.0 2.0 190 190
- 0.2596 1 2 cbr 210 ------- 0 1.0 2.0 190 190
r 0.259688 1 2 cbr 210 ------- 0 1.0 2.0 178 178
+ 0.26044 1 2 cbr 210 ------- 0 1.0 2.0 191 191
- 0.26044 1 2 cbr 210 ------- 0 1.0 2.0 191 191
r 0.260528 1 2 cbr 210 ------- 0 1.0 2.0 179 179
+ 0.26128 1 2 cbr 210 ------- 0 1.0 2.0 192 192
- 0.26128 1 2 cbr 210 ------- 0 1.0 2.0 192 192
r 0.261368 1 2 cbr 210 ------- 0 1.0 2.0 180 180
+ 0.26212 1 2 cbr 210 ------- 0 1.0 2.0 193 193
- 0.26212 1 2 cbr 210 ------- 0 1.0 2.0 193 193
r 0.262208 1 2 cbr 210 ------- 0 1.0 2.0 181 181
+ 0.26296 1 2 cbr 210 ------- 0 1.0 2.0 194 194
- 0.26296 1 2 cbr 210 ------- 0 1.0 2.0 194 194
r 0.263048 1 2 cbr 210 ------- 0 1.0 2.0 182 182
+ 0.2638 1 2 cbr 210 ------- 0 1.0 2.0 195 195
- 0.2638 1 2 cbr 210 ------- 0 1.0 2.0 195 195
r 0.263888 1 2 cbr 210 ------- 0 1.0 2.0 183 183
+ 0.26464 1 2 cbr 210 ------- 0 1.0 2.0 196 196
- 0.26464 1 2 cbr 210 ------- 0 1.0 2.0 196 196
r 0.264728 1 2 cbr 210 ------- 0 1.0 2.0 184 184
+ 0.26548 1 2 cbr 210 ------- 0 1.0 2.0 197 197
- 0.26548 1 2 cbr 210 ------- 0 1.0 2.0 197 197
r 0.265568 1 2 cbr 210 ------- 0 1.0 2.0 185 185
+ 0.26632 1 2 cbr 210 ------- 0 1.0 2.0 198 198
- 0.26632 1 2 cbr 210 ------- 0 1.0 2.0 198 198
r 0.266408 1 2 cbr 210 ------- 0 1.0 2.0 186 186
+ 0.26716 1 2 cbr 210 ------- 0 1.0 2.0 199 199
- 0.26716 1 2 cbr 210 ------- 0 1.0 2.0 199 199
r 0.267248 1 2 cbr 210 ------- 0 1.0 2.0 187 187
+ 0.268 1 2 cbr 210 ------- 0 1.0 2.0 200 200
- 0.268 1 2 cbr 210 ------- 0 1.0 2.0 200 200
r 0.268088 1 2 cbr 210 ------- 0 1.0 2.0 188 188
+ 0.26884 1 2 cbr 210 ------- 0 1.0 2.0 201 201
- 0.26884 1 2 cbr 210 ------- 0 1.0 2.0 201 201
r 0.268928 1 2 cbr 210 ------- 0 1.0 2.0 189 189
+ 0.26968 1 2 cbr 210 ------- 0 1.0 2.0 202 202
- 0.26968 1 2 cbr 210 ------- 0 1.0 2.0 202 202
r 0.269768 1 2 cbr 210 ------- 0 1.0 2.0 190 190
+ 0.27052 1 2 cbr 210 ------- 0 1.0 2.0 203 203
- 0.27052 1 2 cbr 210 ------- 0 1.0 2.0 203 203
r 0.270608 1 2 cbr 210 ------- 0 1.0 2.0 191 191
+ 0.27136 1 2 cbr 210 ------- 0 1.0 2.0 204 204
- 0.27136 1 2 cbr 210 ------- 0 1.0 2.0 204 204
r 0.271448 1 2 cbr 210 ------- 0 1.0 2.0 192 192
+ 0.2722 1 2 cbr 210 ------- 0 1.0 2.0 205 205
- 0.2722 1 2 cbr 210 ------- 0 1.0 2.0 205 205
r 0.272288 1 2 cbr 210 ------- 0 1.0 2.0 193 193
+ 0.27304 1 2 cbr 210 ------- 0 1.0 2.0 206 206
- 0.27304 1 2 cbr 210 ------- 0 1.0 2.0 206 206
r 0.273128 1 2 cbr 210 ------- 0 1.0 2.0 194 194
+ 0.27388 1 2 cbr 210 ------- 0 1.0 2.0 207 207
- 0.27388 1 2 cbr 210 ------- 0 1.0 2.0 207 207
r 0.273968 1 2 cbr 210 ------- 0 1.0 2.0 195 195
+ 0.27472 1 2 cbr 210 ------- 0 1.0 2.0 208 208
- 0.27472 1 2 cbr 210 ------- 0 1.0 2.0 208 208
r 0.274808 1 2 cbr 210 ------- 0 1.0 2.0 196 196
+ 0.27556 1 2 cbr 210 ------- 0 1.0 2.0 209 209
- 0.27556 1 2 cbr 210 ------- 0 1.0 2.0 209 209
r 0.275648 1 2 cbr 210 ------- 0 1.0 2.0 197 197
+ 0.2764 1 2 cbr 210 ------- 0 1.0 2.0 210 210
- 0.2764 1 2 cbr 210 ------- 0 1.0 2.0 210 210
r 0.276488 1 2 cbr 210 ------- 0 1.0 2.0 198 198
+ 0.27724 1 2 cbr 210 ------- 0 1.0 2.0 211 211
- 0.27724 1 2 cbr 210 ------- 0 1.0 2.0 211 211
r 0.277328 1 2 cbr 210 ------- 0 1.0 2.0 199 199
+ 0.27808 1 2 cbr 210 ------- 0 1.0 2.0 212 212
- 0.27808 1 2 cbr 210 ------- 0 1.0 2.0 212 212
r 0.278168 1 2 cbr 210 ------- 0 1.0 2.0 200 200
+ 0.27892 1 2 cbr 210 ------- 0 1.0 2.0 213 213
- 0.27892 1 2 cbr 210 ------- 0 1.0 2.0 213 213
r 0.279008 1 2 cbr 210 ------- 0 1.0 2.0 201 201
+ 0.27976 1 2 cbr 210 ------- 0 1.0 2.0 214 214
- 0.27976 1 2 cbr 210 ------- 0 1.0 2.0 214 214
r 0.279848 1 2 cbr 210 ------- 0 1.0 2.0 202 202
+ 0.2806 1 2 cbr 210 ------- 0 1.0 2.0 215 215
- 0.2806 1 2 cbr 210 ------- 0 1.0 2.0 215 215
r 0.280688 1 2 cbr 210 ------- 0 1.0 2.0 203 203